Created by /ul/ajaramil/scripts/createLammpsInput.pl on Wed Mar  7 11:09:36 2018

       11198 atoms
           0 bonds
           0 angles
           0 dihedrals
           0 impropers

           5 atom types
           0 bond types
           0 angle types
           0 dihedral types
           0 improper types

           0.000000  41.000000 xlo xhi
           0.000000  43.665900 ylo yhi
           0.000000  64.938700 zlo zhi

Masses

    1  12.0000 # C       
    2   1.0080 # H       
    3  15.9990 # O       
    4  14.0000 # N       
    5  30.9738 # P       


Atoms

       1      444        1     0.00014   12.48004   16.69751    0.71041    0    0    0
       2      444        1    -0.00461   12.48004   19.15853    0.71041    0    0    0
       3      444        1    -0.00461   12.48004   21.61949    0.71041    0    0    0
       4      444        1     0.00014   12.48004   24.08051    0.71041    0    0    0
       5      444        2     0.03613   12.48004   15.75353    1.25541    0    0    0
       6      444        2     0.03613   12.48004   25.02449    1.25541    0    0    0
       7      444        1    -0.02703   12.48004   17.92800    1.42084    0    0    0
       8      444        1    -0.00065   12.48004   20.38901    1.42084    0    0    0
       9      444        1    -0.02703   12.48004   22.85002    1.42084    0    0    0
      10      444        1    -0.00892   12.48004   17.92800   58.25525    0    0    0
      11      444        1    -0.00004   12.48004   20.38901   58.25525    0    0    0
      12      444        1    -0.00892   12.48004   22.85002   58.25525    0    0    0
      13      444        2     0.06240   12.48004   15.75353   58.42073    0    0    0
      14      444        2     0.06240   12.48004   25.02449   58.42073    0    0    0
      15      444        1    -0.05283   12.48004   16.69751   58.96574    0    0    0
      16      444        1    -0.00065   12.48004   19.15853   58.96574    0    0    0
      17      444        1    -0.00065   12.48004   21.61949   58.96574    0    0    0
      18      444        1    -0.05283   12.48004   24.08051   58.96574    0    0    0
      19      444        1    -0.05311   12.48004   16.69751   60.38659    0    0    0
      20      444        1    -0.00093   12.48004   19.15853   60.38659    0    0    0
      21      444        1    -0.00093   12.48004   21.61949   60.38659    0    0    0
      22      444        1    -0.05311   12.48004   24.08051   60.38659    0    0    0
      23      444        1    -0.01259   12.48004   17.92800   61.09701    0    0    0
      24      444        1    -0.00008   12.48004   20.38901   61.09701    0    0    0
      25      444        1    -0.01259   12.48004   22.85002   61.09701    0    0    0
      26      444        1    -0.02703   12.48004   17.92800   62.51785    0    0    0
      27      444        1    -0.00065   12.48004   20.38901   62.51785    0    0    0
      28      444        1    -0.02703   12.48004   22.85002   62.51785    0    0    0
      29      444        1     0.00014   12.48004   16.69751   63.22828    0    0    0
      30      444        1    -0.00461   12.48004   19.15853   63.22828    0    0    0
      31      444        1    -0.00461   12.48004   21.61949   63.22828    0    0    0
      32      444        1     0.00014   12.48004   24.08051   63.22828    0    0    0
      33      444        1    -0.05283   12.48004   16.69751    4.97299    0    0    0
      34      444        1    -0.05282   12.48004   16.69751   34.81111    0    0    0
      35      444        1    -0.05282   12.48004   16.69751    9.23556    0    0    0
      36      444        1    -0.05282   12.48004   16.69751   39.07364    0    0    0
      37      444        1    -0.05282   12.48004   16.69751   13.49816    0    0    0
      38      444        1    -0.05282   12.48004   16.69751   43.33624    0    0    0
      39      444        1    -0.05282   12.48004   16.69751   17.76070    0    0    0
      40      444        1    -0.05282   12.48004   16.69751   47.59885    0    0    0
      41      444        1    -0.05282   12.48004   16.69751   22.02330    0    0    0
      42      444        1    -0.05282   12.48004   16.69751   51.86138    0    0    0
      43      444        1    -0.05282   12.48004   16.69751   26.28590    0    0    0
      44      444        1    -0.05282   12.48004   16.69751   56.12398    0    0    0
      45      444        1    -0.05282   12.48004   16.69751   30.54844    0    0    0
      46      444        1    -0.00892   12.48004   17.92800    5.68342    0    0    0
      47      444        1    -0.00892   12.48004   17.92800   35.52153    0    0    0
      48      444        1    -0.00892   12.48004   17.92800    9.94598    0    0    0
      49      444        1    -0.00892   12.48004   17.92800   39.78413    0    0    0
      50      444        1    -0.00892   12.48004   17.92800   14.20859    0    0    0
      51      444        1    -0.00892   12.48004   17.92800   44.04667    0    0    0
      52      444        1    -0.00892   12.48004   17.92800   18.47119    0    0    0
      53      444        1    -0.00892   12.48004   17.92800   48.30927    0    0    0
      54      444        1    -0.00892   12.48004   17.92800   22.73372    0    0    0
      55      444        1    -0.00892   12.48004   17.92800   52.57187    0    0    0
      56      444        1    -0.00892   12.48004   17.92800   26.99633    0    0    0
      57      444        1    -0.00892   12.48004   17.92800   56.83441    0    0    0
      58      444        1    -0.00892   12.48004   17.92800   31.25893    0    0    0
      59      444        1    -0.05311   12.48004   16.69751    3.55213    0    0    0
      60      444        1    -0.05282   12.48004   16.69751   33.39026    0    0    0
      61      444        1    -0.05282   12.48004   16.69751    7.81472    0    0    0
      62      444        1    -0.05282   12.48004   16.69751   37.65280    0    0    0
      63      444        1    -0.05282   12.48004   16.69751   12.07732    0    0    0
      64      444        1    -0.05282   12.48004   16.69751   41.91540    0    0    0
      65      444        1    -0.05282   12.48004   16.69751   16.33985    0    0    0
      66      444        1    -0.05282   12.48004   16.69751   46.17800    0    0    0
      67      444        1    -0.05282   12.48004   16.69751   20.60246    0    0    0
      68      444        1    -0.05282   12.48004   16.69751   50.44054    0    0    0
      69      444        1    -0.05282   12.48004   16.69751   24.86506    0    0    0
      70      444        1    -0.05282   12.48004   16.69751   54.70314    0    0    0
      71      444        1    -0.05282   12.48004   16.69751   29.12759    0    0    0
      72      444        1    -0.00065   12.48004   19.15853    4.97299    0    0    0
      73      444        1    -0.00064   12.48004   19.15853   34.81111    0    0    0
      74      444        1    -0.00064   12.48004   19.15853    9.23556    0    0    0
      75      444        1    -0.00064   12.48004   19.15853   39.07364    0    0    0
      76      444        1    -0.00064   12.48004   19.15853   13.49816    0    0    0
      77      444        1    -0.00064   12.48004   19.15853   43.33624    0    0    0
      78      444        1    -0.00064   12.48004   19.15853   17.76070    0    0    0
      79      444        1    -0.00064   12.48004   19.15853   47.59885    0    0    0
      80      444        1    -0.00064   12.48004   19.15853   22.02330    0    0    0
      81      444        1    -0.00064   12.48004   19.15853   51.86138    0    0    0
      82      444        1    -0.00064   12.48004   19.15853   26.28590    0    0    0
      83      444        1    -0.00064   12.48004   19.15853   56.12398    0    0    0
      84      444        1    -0.00064   12.48004   19.15853   30.54844    0    0    0
      85      444        1    -0.00004   12.48004   20.38901    5.68342    0    0    0
      86      444        1    -0.00004   12.48004   20.38901   35.52153    0    0    0
      87      444        1    -0.00004   12.48004   20.38901    9.94598    0    0    0
      88      444        1    -0.00004   12.48004   20.38901   39.78413    0    0    0
      89      444        1    -0.00004   12.48004   20.38901   14.20859    0    0    0
      90      444        1    -0.00004   12.48004   20.38901   44.04667    0    0    0
      91      444        1    -0.00004   12.48004   20.38901   18.47119    0    0    0
      92      444        1    -0.00004   12.48004   20.38901   48.30927    0    0    0
      93      444        1    -0.00004   12.48004   20.38901   22.73372    0    0    0
      94      444        1    -0.00004   12.48004   20.38901   52.57187    0    0    0
      95      444        1    -0.00004   12.48004   20.38901   26.99633    0    0    0
      96      444        1    -0.00004   12.48004   20.38901   56.83441    0    0    0
      97      444        1    -0.00004   12.48004   20.38901   31.25893    0    0    0
      98      444        1    -0.01259   12.48004   17.92800    2.84170    0    0    0
      99      444        1    -0.00892   12.48004   17.92800   32.67977    0    0    0
     100      444        1    -0.00892   12.48004   17.92800    7.10429    0    0    0
     101      444        1    -0.00892   12.48004   17.92800   36.94237    0    0    0
     102      444        1    -0.00892   12.48004   17.92800   11.36683    0    0    0
     103      444        1    -0.00892   12.48004   17.92800   41.20498    0    0    0
     104      444        1    -0.00892   12.48004   17.92800   15.62943    0    0    0
     105      444        1    -0.00892   12.48004   17.92800   45.46751    0    0    0
     106      444        1    -0.00892   12.48004   17.92800   19.89203    0    0    0
     107      444        1    -0.00892   12.48004   17.92800   49.73011    0    0    0
     108      444        1    -0.00892   12.48004   17.92800   24.15457    0    0    0
     109      444        1    -0.00892   12.48004   17.92800   53.99272    0    0    0
     110      444        1    -0.00892   12.48004   17.92800   28.41717    0    0    0
     111      444        1    -0.00093   12.48004   19.15853    3.55213    0    0    0
     112      444        1    -0.00064   12.48004   19.15853   33.39026    0    0    0
     113      444        1    -0.00064   12.48004   19.15853    7.81472    0    0    0
     114      444        1    -0.00064   12.48004   19.15853   37.65280    0    0    0
     115      444        1    -0.00064   12.48004   19.15853   12.07732    0    0    0
     116      444        1    -0.00064   12.48004   19.15853   41.91540    0    0    0
     117      444        1    -0.00064   12.48004   19.15853   16.33985    0    0    0
     118      444        1    -0.00064   12.48004   19.15853   46.17800    0    0    0
     119      444        1    -0.00064   12.48004   19.15853   20.60246    0    0    0
     120      444        1    -0.00064   12.48004   19.15853   50.44054    0    0    0
     121      444        1    -0.00064   12.48004   19.15853   24.86506    0    0    0
     122      444        1    -0.00064   12.48004   19.15853   54.70314    0    0    0
     123      444        1    -0.00064   12.48004   19.15853   29.12759    0    0    0
     124      444        1    -0.00065   12.48004   21.61949    4.97299    0    0    0
     125      444        1    -0.00064   12.48004   21.61949   34.81111    0    0    0
     126      444        1    -0.00064   12.48004   21.61949    9.23556    0    0    0
     127      444        1    -0.00064   12.48004   21.61949   39.07364    0    0    0
     128      444        1    -0.00064   12.48004   21.61949   13.49816    0    0    0
     129      444        1    -0.00064   12.48004   21.61949   43.33624    0    0    0
     130      444        1    -0.00064   12.48004   21.61949   17.76070    0    0    0
     131      444        1    -0.00064   12.48004   21.61949   47.59885    0    0    0
     132      444        1    -0.00064   12.48004   21.61949   22.02330    0    0    0
     133      444        1    -0.00064   12.48004   21.61949   51.86138    0    0    0
     134      444        1    -0.00064   12.48004   21.61949   26.28590    0    0    0
     135      444        1    -0.00064   12.48004   21.61949   56.12398    0    0    0
     136      444        1    -0.00064   12.48004   21.61949   30.54844    0    0    0
     137      444        1    -0.00892   12.48004   22.85002    5.68342    0    0    0
     138      444        1    -0.00892   12.48004   22.85002   35.52153    0    0    0
     139      444        1    -0.00892   12.48004   22.85002    9.94598    0    0    0
     140      444        1    -0.00892   12.48004   22.85002   39.78413    0    0    0
     141      444        1    -0.00892   12.48004   22.85002   14.20859    0    0    0
     142      444        1    -0.00892   12.48004   22.85002   44.04667    0    0    0
     143      444        1    -0.00892   12.48004   22.85002   18.47119    0    0    0
     144      444        1    -0.00892   12.48004   22.85002   48.30927    0    0    0
     145      444        1    -0.00892   12.48004   22.85002   22.73372    0    0    0
     146      444        1    -0.00892   12.48004   22.85002   52.57187    0    0    0
     147      444        1    -0.00892   12.48004   22.85002   26.99633    0    0    0
     148      444        1    -0.00892   12.48004   22.85002   56.83441    0    0    0
     149      444        1    -0.00892   12.48004   22.85002   31.25893    0    0    0
     150      444        1    -0.00008   12.48004   20.38901    2.84170    0    0    0
     151      444        1    -0.00004   12.48004   20.38901   32.67977    0    0    0
     152      444        1    -0.00004   12.48004   20.38901    7.10429    0    0    0
     153      444        1    -0.00004   12.48004   20.38901   36.94237    0    0    0
     154      444        1    -0.00004   12.48004   20.38901   11.36683    0    0    0
     155      444        1    -0.00004   12.48004   20.38901   41.20498    0    0    0
     156      444        1    -0.00004   12.48004   20.38901   15.62943    0    0    0
     157      444        1    -0.00004   12.48004   20.38901   45.46751    0    0    0
     158      444        1    -0.00004   12.48004   20.38901   19.89203    0    0    0
     159      444        1    -0.00004   12.48004   20.38901   49.73011    0    0    0
     160      444        1    -0.00004   12.48004   20.38901   24.15457    0    0    0
     161      444        1    -0.00004   12.48004   20.38901   53.99272    0    0    0
     162      444        1    -0.00004   12.48004   20.38901   28.41717    0    0    0
     163      444        1    -0.00093   12.48004   21.61949    3.55213    0    0    0
     164      444        1    -0.00064   12.48004   21.61949   33.39026    0    0    0
     165      444        1    -0.00064   12.48004   21.61949    7.81472    0    0    0
     166      444        1    -0.00064   12.48004   21.61949   37.65280    0    0    0
     167      444        1    -0.00064   12.48004   21.61949   12.07732    0    0    0
     168      444        1    -0.00064   12.48004   21.61949   41.91540    0    0    0
     169      444        1    -0.00064   12.48004   21.61949   16.33985    0    0    0
     170      444        1    -0.00064   12.48004   21.61949   46.17800    0    0    0
     171      444        1    -0.00064   12.48004   21.61949   20.60246    0    0    0
     172      444        1    -0.00064   12.48004   21.61949   50.44054    0    0    0
     173      444        1    -0.00064   12.48004   21.61949   24.86506    0    0    0
     174      444        1    -0.00064   12.48004   21.61949   54.70314    0    0    0
     175      444        1    -0.00064   12.48004   21.61949   29.12759    0    0    0
     176      444        1    -0.05283   12.48004   24.08051    4.97299    0    0    0
     177      444        1    -0.05282   12.48004   24.08051   34.81111    0    0    0
     178      444        1    -0.05282   12.48004   24.08051    9.23556    0    0    0
     179      444        1    -0.05282   12.48004   24.08051   39.07364    0    0    0
     180      444        1    -0.05282   12.48004   24.08051   13.49816    0    0    0
     181      444        1    -0.05282   12.48004   24.08051   43.33624    0    0    0
     182      444        1    -0.05282   12.48004   24.08051   17.76070    0    0    0
     183      444        1    -0.05282   12.48004   24.08051   47.59885    0    0    0
     184      444        1    -0.05282   12.48004   24.08051   22.02330    0    0    0
     185      444        1    -0.05282   12.48004   24.08051   51.86138    0    0    0
     186      444        1    -0.05282   12.48004   24.08051   26.28590    0    0    0
     187      444        1    -0.05282   12.48004   24.08051   56.12398    0    0    0
     188      444        1    -0.05282   12.48004   24.08051   30.54844    0    0    0
     189      444        1    -0.01259   12.48004   22.85002    2.84170    0    0    0
     190      444        1    -0.00892   12.48004   22.85002   32.67977    0    0    0
     191      444        1    -0.00892   12.48004   22.85002    7.10429    0    0    0
     192      444        1    -0.00892   12.48004   22.85002   36.94237    0    0    0
     193      444        1    -0.00892   12.48004   22.85002   11.36683    0    0    0
     194      444        1    -0.00892   12.48004   22.85002   41.20498    0    0    0
     195      444        1    -0.00892   12.48004   22.85002   15.62943    0    0    0
     196      444        1    -0.00892   12.48004   22.85002   45.46751    0    0    0
     197      444        1    -0.00892   12.48004   22.85002   19.89203    0    0    0
     198      444        1    -0.00892   12.48004   22.85002   49.73011    0    0    0
     199      444        1    -0.00892   12.48004   22.85002   24.15457    0    0    0
     200      444        1    -0.00892   12.48004   22.85002   53.99272    0    0    0
     201      444        1    -0.00892   12.48004   22.85002   28.41717    0    0    0
     202      444        1    -0.05311   12.48004   24.08051    3.55213    0    0    0
     203      444        1    -0.05282   12.48004   24.08051   33.39026    0    0    0
     204      444        1    -0.05282   12.48004   24.08051    7.81472    0    0    0
     205      444        1    -0.05282   12.48004   24.08051   37.65280    0    0    0
     206      444        1    -0.05282   12.48004   24.08051   12.07732    0    0    0
     207      444        1    -0.05282   12.48004   24.08051   41.91540    0    0    0
     208      444        1    -0.05282   12.48004   24.08051   16.33985    0    0    0
     209      444        1    -0.05282   12.48004   24.08051   46.17800    0    0    0
     210      444        1    -0.05282   12.48004   24.08051   20.60246    0    0    0
     211      444        1    -0.05282   12.48004   24.08051   50.44054    0    0    0
     212      444        1    -0.05282   12.48004   24.08051   24.86506    0    0    0
     213      444        1    -0.05282   12.48004   24.08051   54.70314    0    0    0
     214      444        1    -0.05282   12.48004   24.08051   29.12759    0    0    0
     215      444        2     0.06240   12.48004   15.75353    5.51799    0    0    0
     216      444        2     0.06240   12.48004   15.75353   35.35612    0    0    0
     217      444        2     0.06240   12.48004   15.75353    9.78058    0    0    0
     218      444        2     0.06240   12.48004   15.75353   39.61866    0    0    0
     219      444        2     0.06240   12.48004   15.75353   14.04318    0    0    0
     220      444        2     0.06240   12.48004   15.75353   43.88126    0    0    0
     221      444        2     0.06240   12.48004   15.75353   18.30571    0    0    0
     222      444        2     0.06240   12.48004   15.75353   48.14386    0    0    0
     223      444        2     0.06240   12.48004   15.75353   22.56832    0    0    0
     224      444        2     0.06240   12.48004   15.75353   52.40640    0    0    0
     225      444        2     0.06240   12.48004   15.75353   26.83092    0    0    0
     226      444        2     0.06240   12.48004   15.75353   56.66900    0    0    0
     227      444        2     0.06240   12.48004   15.75353   31.09345    0    0    0
     228      444        2     0.06239   12.48004   15.75353    3.00713    0    0    0
     229      444        2     0.06240   12.48004   15.75353   32.84525    0    0    0
     230      444        2     0.06240   12.48004   15.75353    7.26970    0    0    0
     231      444        2     0.06240   12.48004   15.75353   37.10778    0    0    0
     232      444        2     0.06240   12.48004   15.75353   11.53230    0    0    0
     233      444        2     0.06240   12.48004   15.75353   41.37038    0    0    0
     234      444        2     0.06240   12.48004   15.75353   15.79484    0    0    0
     235      444        2     0.06240   12.48004   15.75353   45.63299    0    0    0
     236      444        2     0.06240   12.48004   15.75353   20.05744    0    0    0
     237      444        2     0.06240   12.48004   15.75353   49.89552    0    0    0
     238      444        2     0.06240   12.48004   15.75353   24.32004    0    0    0
     239      444        2     0.06240   12.48004   15.75353   54.15812    0    0    0
     240      444        2     0.06240   12.48004   15.75353   28.58258    0    0    0
     241      444        2     0.06240   12.48004   25.02449    5.51799    0    0    0
     242      444        2     0.06240   12.48004   25.02449   35.35612    0    0    0
     243      444        2     0.06240   12.48004   25.02449    9.78058    0    0    0
     244      444        2     0.06240   12.48004   25.02449   39.61866    0    0    0
     245      444        2     0.06240   12.48004   25.02449   14.04318    0    0    0
     246      444        2     0.06240   12.48004   25.02449   43.88126    0    0    0
     247      444        2     0.06240   12.48004   25.02449   18.30571    0    0    0
     248      444        2     0.06240   12.48004   25.02449   48.14386    0    0    0
     249      444        2     0.06240   12.48004   25.02449   22.56832    0    0    0
     250      444        2     0.06240   12.48004   25.02449   52.40640    0    0    0
     251      444        2     0.06240   12.48004   25.02449   26.83092    0    0    0
     252      444        2     0.06240   12.48004   25.02449   56.66900    0    0    0
     253      444        2     0.06240   12.48004   25.02449   31.09345    0    0    0
     254      444        2     0.06239   12.48004   25.02449    3.00713    0    0    0
     255      444        2     0.06240   12.48004   25.02449   32.84525    0    0    0
     256      444        2     0.06240   12.48004   25.02449    7.26970    0    0    0
     257      444        2     0.06240   12.48004   25.02449   37.10778    0    0    0
     258      444        2     0.06240   12.48004   25.02449   11.53230    0    0    0
     259      444        2     0.06240   12.48004   25.02449   41.37038    0    0    0
     260      444        2     0.06240   12.48004   25.02449   15.79484    0    0    0
     261      444        2     0.06240   12.48004   25.02449   45.63299    0    0    0
     262      444        2     0.06240   12.48004   25.02449   20.05744    0    0    0
     263      444        2     0.06240   12.48004   25.02449   49.89552    0    0    0
     264      444        2     0.06240   12.48004   25.02449   24.32004    0    0    0
     265      444        2     0.06240   12.48004   25.02449   54.15812    0    0    0
     266      444        2     0.06240   12.48004   25.02449   28.58258    0    0    0
     267      444        3    -0.29183   19.47296   20.49858   25.00962    0    0    0
     268      444        1    -0.00221   15.89696   21.56548   27.68316    0    0    0
     269      444        1    -0.01353   15.90496   21.51172   26.27017    0    0    0
     270      444        1    -0.00246   15.90196   20.36635   28.43744    0    0    0
     271      444        1    -0.03959   15.89996   22.70841   25.53788    0    0    0
     272      444        1    -0.01669   15.88396   22.81568   28.34422    0    0    0
     273      444        1    -0.02671   17.39296   22.73743   25.42145    0    0    0
     274      444        1    -0.01670   15.91496   19.11518   27.77612    0    0    0
     275      444        1    -0.01670   15.89296   20.41892   29.85112    0    0    0
     276      444        1    -0.05316   15.91896   20.26396   25.63232    0    0    0
     277      444        1    -0.05742   15.88696   23.93894   26.19102    0    0    0
     278      444        1    -0.04202   18.02596   22.91748   24.02970    0    0    0
     279      444        1    -0.05372   15.87896   23.99466   27.58386    0    0    0
     280      444        1    -0.05341   15.92296   19.08207   26.37548    0    0    0
     281      444        1    -0.05342   15.87496   22.84981   29.74511    0    0    0
     282      444        1    -0.05342   15.87996   21.66792   30.48821    0    0    0
     283      444        1    -0.05398   15.91996   17.93696   28.53770    0    0    0
     284      444        1    -0.05398   15.89796   19.22346   30.58265    0    0    0
     285      444        1     0.01099   19.54096   22.64143   23.94645    0    0    0
     286      444        1    -0.06061   15.91096   17.99166   29.93028    0    0    0
     287      444        1     0.16976   19.86896   21.15380   24.05169    0    0    0
     288      444        2     0.03135   17.93596   23.38957   26.12100    0    0    0
     289      444        2     0.03135   17.58396   21.73747   25.82350    0    0    0
     290      444        2     0.06239   15.91096   20.15802   24.55265    0    0    0
     291      444        2     0.06206   15.87996   24.86970   25.62849    0    0    0
     292      444        2     0.02725   17.88296   23.95289   23.69626    0    0    0
     293      444        2     0.02725   17.49896   22.28256   23.30662    0    0    0
     294      444        2     0.06237   15.86796   24.96779   28.07075    0    0    0
     295      444        2     0.06238   15.92996   18.13194   25.84594    0    0    0
     296      444        2     0.06238   15.86496   23.79964   30.27561    0    0    0
     297      444        2     0.06238   15.87296   21.73311   31.57427    0    0    0
     298      444        2     0.06236   15.92996   16.96383   28.05080    0    0    0
     299      444        2     0.06236   15.89196   19.23963   31.67095    0    0    0
     300      444        2     0.03452   20.09396   23.16217   24.75547    0    0    0
     301      444        2     0.03452   19.91096   23.08904   23.00681    0    0    0
     302      444        2     0.06179   15.91496   17.07259   30.50809    0    0    0
     303      444        5     0.48565   26.33596   23.80847   21.17547    0    0    0
     304      444        5     0.48345   24.21096   25.81739   20.83538    0    0    0
     305      444        3    -0.34560   20.52896   22.73427   19.66371    0    0    0
     306      444        3    -0.34004   23.68896   23.35804   23.47375    0    0    0
     307      444        3    -0.38642   21.72196   23.04377   16.99222    0    0    0
     308      444        3    -0.38465   23.16296   21.01645   17.86466    0    0    0
     309      444        3    -0.25361   25.88696   23.42328   22.65418    0    0    0
     310      444        3    -0.28371   22.83896   25.57898   20.02253    0    0    0
     311      444        3    -0.38640   25.93996   20.94746   26.09031    0    0    0
     312      444        3    -0.38649   24.85096   23.49513   26.97081    0    0    0
     313      444        3    -0.38409   26.20196   20.67474   23.22829    0    0    0
     314      444        3    -0.18600   24.96096   24.38207   20.44555    0    0    0
     315      444        3    -0.39237   21.83996   24.08823   25.59645    0    0    0
     316      444        3    -0.24639   21.04296   18.76997   19.20706    0    0    0
     317      444        3    -0.30215   26.38196   22.34213   20.46767    0    0    0
     318      444        3    -0.30220   24.93796   26.91237   19.93244    0    0    0
     319      444        3    -0.22681   27.51996   24.66110   21.04178    0    0    0
     320      444        3    -0.22689   24.13696   26.15445   22.26128    0    0    0
     321      444        3    -0.26696   20.43696   18.23707   23.73775    0    0    0
     322      444        4    -0.27078   21.18096   20.65217   20.55341    0    0    0
     323      444        4    -0.27429   20.79496   18.53761   21.49478    0    0    0
     324      444        1     0.11355   22.33796   23.30309   18.25028    0    0    0
     325      444        1     0.12859   22.63596   21.89844   18.81633    0    0    0
     326      444        1     0.11340   21.32996   23.86108   19.25719    0    0    0
     327      444        1     0.16796   21.20796   21.51923   19.35354    0    0    0
     328      444        1     0.11407   25.57796   21.96846   25.18232    0    0    0
     329      444        1     0.11190   24.48496   22.89260   25.74153    0    0    0
     330      444        1     0.13463   25.15796   21.42600   23.80316    0    0    0
     331      444        1     0.11302   24.10796   23.97973   24.72120    0    0    0
     332      444        1     0.19877   24.69196   22.58912   22.91614    0    0    0
     333      444        1     0.08786   21.97396   24.50990   20.49082    0    0    0