# LAMMPS data file created from VNL: Compatible with atom_style atomic.
    635  atoms
      5  atom types
 0.000000  40.000000   xlo xhi
 0.000000  40.000000   ylo yhi
 0.000000  55.413620   zlo zhi

Masses

1   1.007940
2   12.010700
3   14.006700
4   15.999400
5   30.973800

Atoms

      1    2  0.0  12.657958  15.078046  0.710430
      2    2  0.0  12.657958  17.539048  0.710430
      3    2  0.0  12.657958  20.000050  0.710430
      4    2  0.0  12.657958  22.461051  0.710430
      5    2  0.0  12.657958  24.922053  0.710430
      6    1  0.0  12.657958  27.096521  0.875860
      7    1  0.0  12.657958  14.134079  1.255430
      8    2  0.0  12.657958  16.308547  1.420860
      9    2  0.0  12.657958  18.769549  1.420860
     10    2  0.0  12.657958  21.230550  1.420860
     11    2  0.0  12.657958  23.691552  1.420860
     12    2  0.0  12.657958  26.152554  1.420860
     13    2  0.0  12.657958  23.691552  2.841720
     14    2  0.0  12.657958  26.152554  2.841720
     15    2  0.0  12.657958  16.308547  2.841760
     16    2  0.0  12.657958  18.769549  2.841760
     17    2  0.0  12.657958  21.230550  2.841760
     18    1  0.0  12.657958  14.134079  3.007190
     19    1  0.0  12.657958  27.096521  3.386720
     20    2  0.0  12.657958  24.922053  3.552150
     21    2  0.0  12.657958  15.078046  3.552190
     22    2  0.0  12.657958  17.539048  3.552190
     23    2  0.0  12.657958  20.000050  3.552190
     24    2  0.0  12.657958  22.461051  3.552190
     25    2  0.0  12.657958  24.922053  4.973010
     26    2  0.0  12.657958  15.078046  4.973050
     27    2  0.0  12.657958  17.539048  4.973050
     28    2  0.0  12.657958  20.000050  4.973050
     29    2  0.0  12.657958  22.461051  4.973050
     30    1  0.0  12.657958  27.096521  5.138440
     31    1  0.0  12.657958  14.134079  5.518050
     32    2  0.0  12.657958  23.691552  5.683440
     33    2  0.0  12.657958  26.152554  5.683440
     34    2  0.0  12.657958  16.308547  5.683480
     35    2  0.0  12.657958  18.769549  5.683480
     36    2  0.0  12.657958  21.230550  5.683480
     37    2  0.0  12.657958  23.691552  7.104300
     38    2  0.0  12.657958  26.152554  7.104300
     39    2  0.0  12.657958  16.308547  7.104340
     40    2  0.0  12.657958  18.769549  7.104340
     41    2  0.0  12.657958  21.230550  7.104340
     42    1  0.0  12.657958  14.134079  7.269770
     43    1  0.0  12.657958  27.096521  7.649300
     44    2  0.0  12.657958  24.922053  7.814730
     45    2  0.0  12.657958  15.078046  7.814770
     46    2  0.0  12.657958  17.539048  7.814770
     47    2  0.0  12.657958  20.000050  7.814770
     48    2  0.0  12.657958  22.461051  7.814770
     49    2  0.0  12.657958  24.922053  9.235590
     50    2  0.0  12.657958  15.078046  9.235630
     51    2  0.0  12.657958  17.539048  9.235630
     52    2  0.0  12.657958  20.000050  9.235630
     53    2  0.0  12.657958  22.461051  9.235630
     54    1  0.0  12.657958  27.096521  9.401020
     55    1  0.0  12.657958  14.134079  9.780630
     56    2  0.0  12.657958  23.691552  9.946020
     57    2  0.0  12.657958  26.152554  9.946020
     58    2  0.0  12.657958  16.308547  9.946060
     59    2  0.0  12.657958  18.769549  9.946060
     60    2  0.0  12.657958  21.230550  9.946060
     61    2  0.0  12.657958  23.691552  11.366880
     62    2  0.0  12.657958  26.152554  11.366880
     63    2  0.0  12.657958  16.308547  11.366920
     64    2  0.0  12.657958  18.769549  11.366920
     65    2  0.0  12.657958  21.230550  11.366920
     66    1  0.0  12.657958  14.134079  11.532350
     67    1  0.0  12.657958  27.096521  11.911880
     68    2  0.0  12.657958  24.922053  12.077310
     69    2  0.0  12.657958  15.078046  12.077350
     70    2  0.0  12.657958  17.539048  12.077350
     71    2  0.0  12.657958  20.000050  12.077350
     72    2  0.0  12.657958  22.461051  12.077350
     73    2  0.0  12.657958  24.922053  13.498170
     74    2  0.0  12.657958  15.078046  13.498210
     75    2  0.0  12.657958  17.539048  13.498210
     76    2  0.0  12.657958  20.000050  13.498210
     77    2  0.0  12.657958  22.461051  13.498210
     78    1  0.0  12.657958  27.096521  13.663600
     79    1  0.0  12.657958  14.134079  14.043210
     80    2  0.0  12.657958  23.691552  14.208600
     81    2  0.0  12.657958  26.152554  14.208600
     82    2  0.0  12.657958  16.308547  14.208640
     83    2  0.0  12.657958  18.769549  14.208640
     84    2  0.0  12.657958  21.230550  14.208640
     85    2  0.0  12.657958  23.691552  15.629460
     86    2  0.0  12.657958  26.152554  15.629460
     87    2  0.0  12.657958  16.308547  15.629500
     88    2  0.0  12.657958  18.769549  15.629500
     89    2  0.0  12.657958  21.230550  15.629500
     90    1  0.0  12.657958  14.134079  15.794930
     91    1  0.0  12.657958  27.096521  16.174460
     92    2  0.0  12.657958  24.922053  16.339890
     93    2  0.0  12.657958  15.078046  16.339930
     94    2  0.0  12.657958  17.539048  16.339930
     95    2  0.0  12.657958  20.000050  16.339930
     96    2  0.0  12.657958  22.461051  16.339930
     97    2  0.0  12.657958  24.922053  17.760750
     98    2  0.0  12.657958  15.078046  17.760790
     99    2  0.0  12.657958  17.539048  17.760790
    100    2  0.0  12.657958  20.000050  17.760790
    101    2  0.0  12.657958  22.461051  17.760790
    102    1  0.0  12.657958  27.096521  17.926180
    103    1  0.0  12.657958  14.134079  18.305790
    104    2  0.0  12.657958  23.691552  18.471180
    105    2  0.0  12.657958  26.152554  18.471180
    106    2  0.0  12.657958  16.308547  18.471220
    107    2  0.0  12.657958  18.769549  18.471220
    108    2  0.0  12.657958  21.230550  18.471220
    109    2  0.0  12.657958  16.308547  19.892080
    110    2  0.0  12.657958  18.769549  19.892080
    111    2  0.0  12.657958  21.230550  19.892080
    112    2  0.0  12.657958  23.691552  19.892120
    113    2  0.0  12.657958  26.152554  19.892120
    114    1  0.0  12.657958  14.134079  20.057510
    115    1  0.0  12.657958  27.096521  20.437120
    116    2  0.0  12.657958  15.078046  20.602510
    117    2  0.0  12.657958  17.539048  20.602510
    118    2  0.0  12.657958  20.000050  20.602510
    119    2  0.0  12.657958  22.461051  20.602510
    120    2  0.0  12.657958  24.922053  20.602550
    121    2  0.0  12.657958  15.078046  22.023370
    122    2  0.0  12.657958  17.539048  22.023370
    123    2  0.0  12.657958  20.000050  22.023370
    124    2  0.0  12.657958  22.461051  22.023370
    125    2  0.0  12.657958  24.922053  22.023410
    126    1  0.0  12.657958  27.096521  22.188840
    127    1  0.0  12.657958  14.134079  22.568370
    128    2  0.0  12.657958  16.308547  22.733800
    129    2  0.0  12.657958  18.769549  22.733800
    130    2  0.0  12.657958  21.230550  22.733800
    131    2  0.0  12.657958  23.691552  22.733840
    132    2  0.0  12.657958  26.152554  22.733840
    133    2  0.0  12.657958  16.308547  24.154660
    134    2  0.0  12.657958  18.769549  24.154660
    135    2  0.0  12.657958  21.230550  24.154660
    136    2  0.0  12.657958  23.691552  24.154700
    137    2  0.0  12.657958  26.152554  24.154700
    138    1  0.0  12.657958  14.134079  24.320090
    139    1  0.0  12.657958  27.096521  24.699700
    140    2  0.0  12.657958  15.078046  24.865090
    141    2  0.0  12.657958  17.539048  24.865090
    142    2  0.0  12.657958  20.000050  24.865090
    143    2  0.0  12.657958  22.461051  24.865090
    144    2  0.0  12.657958  24.922053  24.865130
    145    2  0.0  12.657958  15.078046  26.285950
    146    2  0.0  12.657958  17.539048  26.285950
    147    2  0.0  12.657958  20.000050  26.285950
    148    2  0.0  12.657958  22.461051  26.285950
    149    2  0.0  12.657958  24.922053  26.285990
    150    1  0.0  12.657958  27.096521  26.451420
    151    1  0.0  12.657958  14.134079  26.830950
    152    2  0.0  12.657958  16.308547  26.996380
    153    2  0.0  12.657958  18.769549  26.996380
    154    2  0.0  12.657958  21.230550  26.996380
    155    2  0.0  12.657958  23.691552  26.996420
    156    2  0.0  12.657958  26.152554  26.996420
    157    2  0.0  12.657958  16.308547  28.417240
    158    2  0.0  12.657958  18.769549  28.417240
    159    2  0.0  12.657958  21.230550  28.417240
    160    2  0.0  12.657958  23.691552  28.417280
    161    2  0.0  12.657958  26.152554  28.417280
    162    1  0.0  12.657958  14.134079  28.582670
    163    1  0.0  12.657958  27.096521  28.962280
    164    2  0.0  12.657958  15.078046  29.127670
    165    2  0.0  12.657958  17.539048  29.127670
    166    2  0.0  12.657958  20.000050  29.127670
    167    2  0.0  12.657958  22.461051  29.127670
    168    2  0.0  12.657958  24.922053  29.127710
    169    2  0.0  12.657958  15.078046  30.548530
    170    2  0.0  12.657958  17.539048  30.548530
    171    2  0.0  12.657958  20.000050  30.548530
    172    2  0.0  12.657958  22.461051  30.548530
    173    2  0.0  12.657958  24.922053  30.548570
    174    1  0.0  12.657958  27.096521  30.714000
    175    1  0.0  12.657958  14.134079  31.093530
    176    2  0.0  12.657958  16.308547  31.258960
    177    2  0.0  12.657958  18.769549  31.258960
    178    2  0.0  12.657958  21.230550  31.258960
    179    2  0.0  12.657958  23.691552  31.259000
    180    2  0.0  12.657958  26.152554  31.259000
    181    2  0.0  12.657958  16.308547  32.679860
    182    2  0.0  12.657958  18.769549  32.679860
    183    2  0.0  12.657958  21.230550  32.679860
    184    2  0.0  12.657958  23.691552  32.679860
    185    2  0.0  12.657958  26.152554  32.679860
    186    1  0.0  12.657958  14.134079  32.845290
    187    1  0.0  12.657958  27.096521  33.224860
    188    2  0.0  12.657958  15.078046  33.390290
    189    2  0.0  12.657958  17.539048  33.390290
    190    2  0.0  12.657958  20.000050  33.390290
    191    2  0.0  12.657958  22.461051  33.390290
    192    2  0.0  12.657958  24.922053  33.390290
    193    2  0.0  12.657958  24.922053  34.811150
    194    2  0.0  12.657958  15.078046  34.811150
    195    2  0.0  12.657958  17.539048  34.811150
    196    2  0.0  12.657958  20.000050  34.811150
    197    2  0.0  12.657958  22.461051  34.811150
    198    1  0.0  12.657958  27.096521  34.976580
    199    1  0.0  12.657958  14.134079  35.356150
    200    2  0.0  12.657958  16.308547  35.521580
    201    2  0.0  12.657958  18.769549  35.521580
    202    2  0.0  12.657958  21.230550  35.521580
    203    2  0.0  12.657958  23.691552  35.521580
    204    2  0.0  12.657958  26.152554  35.521580
    205    2  0.0  12.657958  16.308547  36.942440
    206    2  0.0  12.657958  18.769549  36.942440
    207    2  0.0  12.657958  21.230550  36.942440
    208    2  0.0  12.657958  23.691552  36.942440
    209    2  0.0  12.657958  26.152554  36.942440
    210    1  0.0  12.657958  14.134079  37.107870
    211    1  0.0  12.657958  27.096521  37.487440
    212    2  0.0  12.657958  15.078046  37.652870
    213    2  0.0  12.657958  17.539048  37.652870
    214    2  0.0  12.657958  20.000050  37.652870
    215    2  0.0  12.657958  22.461051  37.652870
    216    2  0.0  12.657958  24.922053  37.652870
    217    2  0.0  12.657958  15.078046  39.073730
    218    2  0.0  12.657958  17.539048  39.073730
    219    2  0.0  12.657958  20.000050  39.073730
    220    2  0.0  12.657958  22.461051  39.073730
    221    2  0.0  12.657958  24.922053  39.073730
    222    1  0.0  12.657958  27.096521  39.239160
    223    1  0.0  12.657958  14.134079  39.618730
    224    2  0.0  12.657958  16.308547  39.784160
    225    2  0.0  12.657958  18.769549  39.784160
    226    2  0.0  12.657958  21.230550  39.784160
    227    2  0.0  12.657958  23.691552  39.784160
    228    2  0.0  12.657958  26.152554  39.784160
    229    2  0.0  12.657958  23.691552  41.205020
    230    2  0.0  12.657958  26.152554  41.205020
    231    2  0.0  12.657958  16.308547  41.205020
    232    2  0.0  12.657958  18.769549  41.205020
    233    2  0.0  12.657958  21.230550  41.205020
    234    1  0.0  12.657958  14.134079  41.370450
    235    1  0.0  12.657958  27.096521  41.750020
    236    2  0.0  12.657958  15.078046  41.915450
    237    2  0.0  12.657958  17.539048  41.915450
    238    2  0.0  12.657958  20.000050  41.915450
    239    2  0.0  12.657958  22.461051  41.915450
    240    2  0.0  12.657958  24.922053  41.915450
    241    2  0.0  12.657958  15.078046  43.336310
    242    2  0.0  12.657958  17.539048  43.336310
    243    2  0.0  12.657958  20.000050  43.336310
    244    2  0.0  12.657958  22.461051  43.336310
    245    2  0.0  12.657958  24.922053  43.336310
    246    1  0.0  12.657958  27.096521  43.501740
    247    1  0.0  12.657958  14.134079  43.881310
    248    2  0.0  12.657958  16.308547  44.046740
    249    2  0.0  12.657958  18.769549  44.046740
    250    2  0.0  12.657958  21.230550  44.046740
    251    2  0.0  12.657958  23.691552  44.046740
    252    2  0.0  12.657958  26.152554  44.046740
    253    2  0.0  12.657958  16.308547  45.467600
    254    2  0.0  12.657958  18.769549  45.467600
    255    2  0.0  12.657958  21.230550  45.467600
    256    2  0.0  12.657958  23.691552  45.467600
    257    2  0.0  12.657958  26.152554  45.467600
    258    1  0.0  12.657958  14.134079  45.633030
    259    1  0.0  12.657958  27.096521  46.012600
    260    2  0.0  12.657958  15.078046  46.178030
    261    2  0.0  12.657958  17.539048  46.178030
    262    2  0.0  12.657958  20.000050  46.178030
    263    2  0.0  12.657958  22.461051  46.178030
    264    2  0.0  12.657958  24.922053  46.178030
    265    2  0.0  12.657958  15.078046  47.598890
    266    2  0.0  12.657958  17.539048  47.598890
    267    2  0.0  12.657958  20.000050  47.598890
    268    2  0.0  12.657958  22.461051  47.598890
    269    2  0.0  12.657958  24.922053  47.598890
    270    1  0.0  12.657958  27.096521  47.764320
    271    1  0.0  12.657958  14.134079  48.143890
    272    2  0.0  12.657958  23.691552  48.309320
    273    2  0.0  12.657958  26.152554  48.309320
    274    2  0.0  12.657958  16.308547  48.309320
    275    2  0.0  12.657958  18.769549  48.309320
    276    2  0.0  12.657958  21.230550  48.309320
    277    2  0.0  12.657958  16.308547  49.730180
    278    2  0.0  12.657958  18.769549  49.730180
    279    2  0.0  12.657958  21.230550  49.730180
    280    2  0.0  12.657958  23.691552  49.730180
    281    2  0.0  12.657958  26.152554  49.730180
    282    1  0.0  12.657958  14.134079  49.895610
    283    1  0.0  12.657958  27.096521  50.275180
    284    2  0.0  12.657958  15.078046  50.440610
    285    2  0.0  12.657958  17.539048  50.440610
    286    2  0.0  12.657958  20.000050  50.440610
    287    2  0.0  12.657958  22.461051  50.440610
    288    2  0.0  12.657958  24.922053  50.440610
    289    2  0.0  12.657958  15.078046  51.861470
    290    2  0.0  12.657958  17.539048  51.861470
    291    2  0.0  12.657958  20.000050  51.861470
    292    2  0.0  12.657958  22.461051  51.861470
    293    2  0.0  12.657958  24.922053  51.861470
    294    1  0.0  12.657958  27.096521  52.026900
    295    1  0.0  12.657958  14.134079  52.406470
    296    2  0.0  12.657958  16.308547  52.571900
    297    2  0.0  12.657958  18.769549  52.571900
    298    2  0.0  12.657958  21.230550  52.571900
    299    2  0.0  12.657958  23.691552  52.571900
    300    2  0.0  12.657958  26.152554  52.571900
    301    2  0.0  12.657958  16.308547  53.992760
    302    2  0.0  12.657958  18.769549  53.992760
    303    2  0.0  12.657958  21.230550  53.992760
    304    2  0.0  12.657958  23.691552  53.992760
    305    2  0.0  12.657958  26.152554  53.992760
    306    1  0.0  12.657958  14.134079  54.158190
    307    1  0.0  12.657958  27.096521  54.537760
    308    2  0.0  12.657958  15.078046  54.703190
    309    2  0.0  12.657958  17.539048  54.703190
    310    2  0.0  12.657958  20.000050  54.703190
    311    2  0.0  12.657958  22.461051  54.703190
    312    2  0.0  12.657958  24.922053  54.703190
    313    1  0.0  21.376042  23.480897  1.591970
    314    4  0.0  21.544042  22.635947  2.046046
    315    1  0.0  22.555042  20.875400  2.076022
    316    4  0.0  22.985042  20.608658  2.918517
    317    1  0.0  23.071042  23.528004  3.213534
    318    2  0.0  22.160042  22.895286  3.304157
    319    1  0.0  20.507042  20.527363  3.612463
    320    1  0.0  20.467042  24.182754  3.828190
    321    2  0.0  22.458042  21.490635  3.870154
    322    1  0.0  25.076042  26.142395  4.136426
    323    4  0.0  20.865042  18.362172  4.260918
    324    2  0.0  21.152042  23.453270  4.311055
    325    2  0.0  21.030042  21.111406  4.407368
    326    1  0.0  23.183042  21.566356  4.715585
    327    4  0.0  20.351042  22.326464  4.717530
    328    1  0.0  26.934042  21.899698  4.870840
    329    4  0.0  24.760042  26.504553  4.986284
    330    4  0.0  22.661042  25.171149  5.076381
    331    2  0.0  20.830042  18.844798  5.379914
    332    4  0.0  24.783042  23.974261  5.499393
    333    4  0.0  26.204042  21.934307  5.521541
    334    2  0.0  21.796042  24.102106  5.544666
    335    3  0.0  21.003042  20.244373  5.607255
    336    5  0.0  24.033042  25.409591  5.889210
    337    4  0.0  27.342042  24.253311  6.095611
    338    1  0.0  22.378042  23.361774  6.133041
    339    1  0.0  21.023042  24.531817  6.214520
    340    5  0.0  26.158042  23.400640  6.229303
    341    1  0.0  20.323042  17.140196  6.433840
    342    3  0.0  20.617042  18.129815  6.548661
    343    1  0.0  20.697042  21.885404  6.813075
    344    2  0.0  20.720042  20.792058  6.820800
    345    1  0.0  24.131042  21.793601  6.999400
    346    4  0.0  23.959042  25.746647  7.315106
    347    1  0.0  26.157042  20.572179  7.363734
    348    4  0.0  25.709042  23.015459  7.708044
    349    2  0.0  20.430042  18.617899  7.860713
    350    2  0.0  20.391042  20.082631  7.954860
    351    2  0.0  24.514042  22.181302  7.970025
    352    1  0.0  19.733042  22.681225  8.060660
    353    4  0.0  26.024042  20.266923  8.282167
    354    1  0.0  17.321042  21.874741  8.360459
    355    4  0.0  23.511042  22.950250  8.527613
    356    1  0.0  17.705042  23.545088  8.750127
    357    4  0.0  20.259042  17.829276  8.791579
    358    2  0.0  24.980042  21.018177  8.856986
    359    1  0.0  24.070042  20.377241  8.992969
    360    2  0.0  19.363042  22.233614  9.000284
    361    2  0.0  17.848042  22.509672  9.083541
    362    2  0.0  19.691042  20.745967  9.105515
    363    1  0.0  22.535042  25.168095  9.449544
    364    1  0.0  24.800042  24.233919  9.562914
    365    1  0.0  15.733042  19.750189  9.606496
    366    2  0.0  23.930042  23.571931  9.775066
    367    1  0.0  19.916042  22.754365  9.809296
    368    4  0.0  19.295042  20.090756  10.063460
    369    1  0.0  26.332042  22.152561  10.077678
    370    2  0.0  25.400042  21.560631  10.236186
    371    2  0.0  22.793042  24.457496  10.265883
    372    2  0.0  17.215042  22.329621  10.475325
    373    2  0.0  15.722042  22.300590  10.591760
    374    4  0.0  21.662042  23.680413  10.650309
    375    1  0.0  15.702042  24.461883  10.682314
    376    2  0.0  15.741042  19.856133  10.686198
    377    2  0.0  24.307042  22.484804  10.795374
    378    1  0.0  17.406042  21.329658  10.877354
    379    1  0.0  15.752042  17.724137  10.899765
    380    1  0.0  23.379042  21.890224  10.981047
    381    1  0.0  23.201042  25.027030  11.127252
    382    4  0.0  25.762042  20.539646  11.144158
    383    1  0.0  17.758042  22.981757  11.174870
    384    2  0.0  15.709042  23.531144  11.244858
    385    2  0.0  15.727042  21.103897  11.324005
    386    1  0.0  24.954042  20.028022  11.344331
    387    2  0.0  15.745042  18.674242  11.429347
    388    1  0.0  21.410042  23.944860  11.548979
    389    4  0.0  24.673042  23.087312  12.024649
    390    1  0.0  25.646042  23.052184  12.087002
    391    2  0.0  15.701042  23.586838  12.637705
    392    2  0.0  15.719042  21.157664  12.736984
    393    2  0.0  15.737042  18.707385  12.829970
    394    1  0.0  15.752042  16.556025  13.104668
    395    1  0.0  15.690042  24.559957  13.124586
    396    2  0.0  15.706042  22.407868  13.398073
    397    2  0.0  15.724042  19.958560  13.491301
    398    2  0.0  15.742042  17.529143  13.591549
    399    2  0.0  15.697042  22.441982  14.798937
    400    2  0.0  15.715042  20.011114  14.905008
    401    2  0.0  15.733042  17.583867  14.984155
    402    1  0.0  15.687042  23.391845  15.329490
    403    2  0.0  15.702042  21.260091  15.542087
    404    1  0.0  15.737042  16.664780  15.561971
    405    2  0.0  15.720042  18.815633  15.636524
    406    1  0.0  15.695042  21.325292  16.628120
    407    1  0.0  15.714042  18.831844  16.724771
    408    1  0.0  21.376042  23.480897  14.379710
    409    4  0.0  21.544042  22.635947  14.833786
    410    1  0.0  22.555042  20.875400  14.863762
    411    4  0.0  22.985042  20.608658  15.706257
    412    1  0.0  23.071042  23.528004  16.001274
    413    2  0.0  22.160042  22.895286  16.091897
    414    1  0.0  20.507042  20.527363  16.400203
    415    1  0.0  20.467042  24.182754  16.615930
    416    2  0.0  22.458042  21.490635  16.657894
    417    1  0.0  25.076042  26.142395  16.924166
    418    4  0.0  20.865042  18.362172  17.048658
    419    2  0.0  21.152042  23.453270  17.098795
    420    2  0.0  21.030042  21.111406  17.195108
    421    1  0.0  23.183042  21.566356  17.503325
    422    4  0.0  20.351042  22.326464  17.505270
    423    1  0.0  26.934042  21.899698  17.658580
    424    4  0.0  24.760042  26.504553  17.774024
    425    4  0.0  22.661042  25.171149  17.864121
    426    2  0.0  20.830042  18.844798  18.167654
    427    4  0.0  24.783042  23.974261  18.287133
    428    4  0.0  26.204042  21.934307  18.309281
    429    2  0.0  21.796042  24.102106  18.332406
    430    3  0.0  21.003042  20.244373  18.394995
    431    5  0.0  24.033042  25.409591  18.676950
    432    4  0.0  27.342042  24.253311  18.883351
    433    1  0.0  22.378042  23.361774  18.920781
    434    1  0.0  21.023042  24.531817  19.002260
    435    5  0.0  26.158042  23.400640  19.017043
    436    1  0.0  20.323042  17.140196  19.221580
    437    3  0.0  20.617042  18.129815  19.336401
    438    1  0.0  20.697042  21.885404  19.600815
    439    2  0.0  20.720042  20.792058  19.608540
    440    1  0.0  24.131042  21.793601  19.787140
    441    4  0.0  23.959042  25.746647  20.102846
    442    1  0.0  26.157042  20.572179  20.151474
    443    4  0.0  25.709042  23.015459  20.495784
    444    2  0.0  20.430042  18.617899  20.648453
    445    2  0.0  20.391042  20.082631  20.742600
    446    2  0.0  24.514042  22.181302  20.757765
    447    1  0.0  19.733042  22.681225  20.848400
    448    4  0.0  26.024042  20.266923  21.069907
    449    1  0.0  17.321042  21.874741  21.148199
    450    4  0.0  23.511042  22.950250  21.315353
    451    1  0.0  17.705042  23.545088  21.537867
    452    4  0.0  20.259042  17.829276  21.579319
    453    2  0.0  24.980042  21.018177  21.644726
    454    1  0.0  24.070042  20.377241  21.780709
    455    2  0.0  19.363042  22.233614  21.788024
    456    2  0.0  17.848042  22.509672  21.871281
    457    2  0.0  19.691042  20.745967  21.893255
    458    1  0.0  22.535042  25.168095  22.237284
    459    1  0.0  24.800042  24.233919  22.350654
    460    1  0.0  15.733042  19.750189  22.394236
    461    2  0.0  23.930042  23.571931  22.562806
    462    1  0.0  19.916042  22.754365  22.597036
    463    4  0.0  19.295042  20.090756  22.851200
    464    1  0.0  26.332042  22.152561  22.865418
    465    2  0.0  25.400042  21.560631  23.023926
    466    2  0.0  22.793042  24.457496  23.053623
    467    2  0.0  17.215042  22.329621  23.263065
    468    2  0.0  15.722042  22.300590  23.379500
    469    4  0.0  21.662042  23.680413  23.438049
    470    1  0.0  15.702042  24.461883  23.470054
    471    2  0.0  15.741042  19.856133  23.473938
    472    2  0.0  24.307042  22.484804  23.583114
    473    1  0.0  17.406042  21.329658  23.665094
    474    1  0.0  15.752042  17.724137  23.687505
    475    1  0.0  23.379042  21.890224  23.768787
    476    1  0.0  23.201042  25.027030  23.914992
    477    4  0.0  25.762042  20.539646  23.931898
    478    1  0.0  17.758042  22.981757  23.962610
    479    2  0.0  15.709042  23.531144  24.032598
    480    2  0.0  15.727042  21.103897  24.111745
    481    1  0.0  24.954042  20.028022  24.132071
    482    2  0.0  15.745042  18.674242  24.217087
    483    1  0.0  21.410042  23.944860  24.336719
    484    4  0.0  24.673042  23.087312  24.812389
    485    1  0.0  25.646042  23.052184  24.874742
    486    2  0.0  15.701042  23.586838  25.425445
    487    2  0.0  15.719042  21.157664  25.524724
    488    2  0.0  15.737042  18.707385  25.617710
    489    1  0.0  15.752042  16.556025  25.892408
    490    1  0.0  15.690042  24.559957  25.912326
    491    2  0.0  15.706042  22.407868  26.185813
    492    2  0.0  15.724042  19.958560  26.279041
    493    2  0.0  15.742042  17.529143  26.379289
    494    2  0.0  15.697042  22.441982  27.586677
    495    2  0.0  15.715042  20.011114  27.692748
    496    2  0.0  15.733042  17.583867  27.771895
    497    1  0.0  15.687042  23.391845  28.117230
    498    2  0.0  15.702042  21.260091  28.329827
    499    1  0.0  15.737042  16.664780  28.349711
    500    2  0.0  15.720042  18.815633  28.424264
    501    1  0.0  15.695042  21.325292  29.415860
    502    1  0.0  15.714042  18.831844  29.512511
    503    1  0.0  21.376042  23.480897  35.692610
    504    4  0.0  21.544042  22.635947  36.146686
    505    1  0.0  22.555042  20.875400  36.176662
    506    4  0.0  22.985042  20.608658  37.019157
    507    1  0.0  23.071042  23.528004  37.314174
    508    2  0.0  22.160042  22.895286  37.404797
    509    1  0.0  20.507042  20.527363  37.713103
    510    1  0.0  20.467042  24.182754  37.928830
    511    2  0.0  22.458042  21.490635  37.970794
    512    1  0.0  25.076042  26.142395  38.237066
    513    4  0.0  20.865042  18.362172  38.361558
    514    2  0.0  21.152042  23.453270  38.411695
    515    2  0.0  21.030042  21.111406  38.508008
    516    1  0.0  23.183042  21.566356  38.816225
    517    4  0.0  20.351042  22.326464  38.818170
    518    1  0.0  26.934042  21.899698  38.971480
    519    4  0.0  24.760042  26.504553  39.086924
    520    4  0.0  22.661042  25.171149  39.177021
    521    2  0.0  20.830042  18.844798  39.480554
    522    4  0.0  24.783042  23.974261  39.600033
    523    4  0.0  26.204042  21.934307  39.622181
    524    2  0.0  21.796042  24.102106  39.645306
    525    3  0.0  21.003042  20.244373  39.707895
    526    5  0.0  24.033042  25.409591  39.989850
    527    4  0.0  27.342042  24.253311  40.196251
    528    1  0.0  22.378042  23.361774  40.233681
    529    1  0.0  21.023042  24.531817  40.315160
    530    5  0.0  26.158042  23.400640  40.329943
    531    1  0.0  20.323042  17.140196  40.534480
    532    3  0.0  20.617042  18.129815  40.649301
    533    1  0.0  20.697042  21.885404  40.913715
    534    2  0.0  20.720042  20.792058  40.921440
    535    1  0.0  24.131042  21.793601  41.100040
    536    4  0.0  23.959042  25.746647  41.415746
    537    1  0.0  26.157042  20.572179  41.464374
    538    4  0.0  25.709042  23.015459  41.808684
    539    2  0.0  20.430042  18.617899  41.961353
    540    2  0.0  20.391042  20.082631  42.055500
    541    2  0.0  24.514042  22.181302  42.070665
    542    1  0.0  19.733042  22.681225  42.161300
    543    4  0.0  26.024042  20.266923  42.382807
    544    1  0.0  17.321042  21.874741  42.461099
    545    4  0.0  23.511042  22.950250  42.628253
    546    1  0.0  17.705042  23.545088  42.850767
    547    4  0.0  20.259042  17.829276  42.892219
    548    2  0.0  24.980042  21.018177  42.957626
    549    1  0.0  24.070042  20.377241  43.093609
    550    2  0.0  19.363042  22.233614  43.100924
    551    2  0.0  17.848042  22.509672  43.184181
    552    2  0.0  19.691042  20.745967  43.206155
    553    1  0.0  22.535042  25.168095  43.550184
    554    1  0.0  24.800042  24.233919  43.663554
    555    1  0.0  15.733042  19.750189  43.707136
    556    2  0.0  23.930042  23.571931  43.875706
    557    1  0.0  19.916042  22.754365  43.909936
    558    4  0.0  19.295042  20.090756  44.164100
    559    1  0.0  26.332042  22.152561  44.178318
    560    2  0.0  25.400042  21.560631  44.336826
    561    2  0.0  22.793042  24.457496  44.366523
    562    2  0.0  17.215042  22.329621  44.575965
    563    2  0.0  15.722042  22.300590  44.692400
    564    4  0.0  21.662042  23.680413  44.750949
    565    1  0.0  15.702042  24.461883  44.782954
    566    2  0.0  15.741042  19.856133  44.786838
    567    2  0.0  24.307042  22.484804  44.896014
    568    1  0.0  17.406042  21.329658  44.977994
    569    1  0.0  15.752042  17.724137  45.000405
    570    1  0.0  23.379042  21.890224  45.081687
    571    1  0.0  23.201042  25.027030  45.227892
    572    4  0.0  25.762042  20.539646  45.244798
    573    1  0.0  17.758042  22.981757  45.275510
    574    2  0.0  15.709042  23.531144  45.345498
    575    2  0.0  15.727042  21.103897  45.424645
    576    1  0.0  24.954042  20.028022  45.444971
    577    2  0.0  15.745042  18.674242  45.529987
    578    1  0.0  21.410042  23.944860  45.649619
    579    4  0.0  24.673042  23.087312  46.125289
    580    1  0.0  25.646042  23.052184  46.187642
    581    2  0.0  15.701042  23.586838  46.738345
    582    2  0.0  15.719042  21.157664  46.837624
    583    2  0.0  15.737042  18.707385  46.930610
    584    1  0.0  15.752042  16.556025  47.205308