# LAMMPS data file created from VNL: Compatible with atom_style atomic.
     38  atoms
      3  atom types
 0.000000  30.000000   xlo xhi
 0.000000  30.000000   ylo yhi
 0.000000  55.413580   zlo zhi

Masses

1   1.007940
2   12.010700
3   15.999400

Atoms

      1    1  0.0  16.446533  12.881140  19.183680
      2    1  0.0  16.405392  11.663369  17.007133
      3    1  0.0  16.376952  15.053416  20.474262
      4    2  0.0  16.365719  13.860984  18.646384
      5    2  0.0  16.332112  12.634992  16.455108
      6    1  0.0  16.234170  11.689201  14.479480
      7    2  0.0  16.333613  15.052489  19.355348
      8    2  0.0  16.321398  13.845427  17.199381
      9    2  0.0  16.245194  12.653719  15.048828
     10    1  0.0  16.240975  17.545510  20.494201
     11    2  0.0  16.261012  16.326016  18.669703
     12    2  0.0  16.266971  15.101928  16.483217
     13    2  0.0  16.218444  17.561468  19.374952
     14    2  0.0  16.176619  13.868246  14.321754
     15    2  0.0  16.242427  16.340683  17.221521
     16    2  0.0  16.216948  15.113611  15.035975
     17    1  0.0  16.188933  16.426821  13.244154
     18    2  0.0  16.162304  18.788960  18.678356
     19    2  0.0  16.188863  17.602674  16.518293
     20    1  0.0  16.136209  19.750609  19.250862
     21    2  0.0  16.191347  16.397126  14.362117
     22    2  0.0  16.150644  18.813194  17.267298
     23    2  0.0  16.183331  17.588967  15.072838
     24    1  0.0  16.111592  19.786545  16.714304
     25    1  0.0  16.175032  18.569580  14.531941
     26    2  0.0  15.915435  13.828261  12.818270
     27    1  0.0  13.778628  13.349092  13.101237
     28    1  0.0  16.189574  12.811876  12.411070
     29    1  0.0  14.135452  15.121565  12.995363
     30    1  0.0  16.547497  14.581113  12.261519
     31    2  0.0  14.396672  14.117126  12.552429
     32    3  0.0  12.085616  15.692703  10.653404
     33    2  0.0  14.004000  14.109517  11.033374
     34    2  0.0  12.531797  14.504227  10.882455
     35    1  0.0  14.621594  14.864325  10.470340
     36    1  0.0  14.185429  13.085852  10.594847
     37    3  0.0  11.680318  13.419374  11.088779
     38    1  0.0  10.728633  13.879407  11.012850

