# LAMMPS data file created from VNL: Compatible with atom_style atomic.
    120  atoms
      5  atom types
 0.000000  40.000000   xlo xhi
 0.000000  40.000000   ylo yhi
 0.000000  55.413600   zlo zhi

Masses

1   1.007940
2   12.010700
3   14.006700
4   15.999400
5   30.973800

Atoms

      1    5  0.0  18.680350  22.118150  11.630900
      2    5  0.0  19.687750  23.226050  14.163600
      3    4  0.0  23.571950  20.310050  15.111400
      4    4  0.0  18.488050  19.659050  14.262100
      5    4  0.0  24.960650  22.489050  13.590300
      6    4  0.0  24.383950  20.674350  11.637700
      7    4  0.0  17.874950  20.918250  12.349200
      8    4  0.0  21.169350  23.030050  14.783000
      9    4  0.0  16.526950  16.714250  12.133200
     10    4  0.0  15.289150  17.839150  14.468600
     11    4  0.0  18.185850  18.636850  10.745000
     12    4  0.0  19.812850  22.550050  12.700600
     13    4  0.0  18.076050  18.291950  16.640100
     14    4  0.0  25.221750  17.585150  12.514900
     15    4  0.0  19.532050  21.394650  10.461000
     16    4  0.0  19.612450  24.806850  13.828300
     17    4  0.0  17.816650  23.251250  11.157600
     18    4  0.0  18.557650  22.700950  14.999800
     19    4  0.0  21.650750  14.795650  13.357900
     20    3  0.0  23.409350  18.443250  13.713900
     21    3  0.0  23.442150  16.197750  12.935100
     22    2  0.0  23.608950  22.040450  13.494000
     23    2  0.0  23.547550  20.709050  12.775700
     24    2  0.0  23.136550  21.670050  14.893400
     25    2  0.0  23.996150  19.744750  13.860300
     26    2  0.0  16.766750  18.044550  12.598200
     27    2  0.0  16.656950  18.046550  14.124200
     28    2  0.0  18.162650  18.482850  12.159600
     29    2  0.0  17.160450  19.370450  14.715000
     30    2  0.0  18.586450  19.784450  12.841900
     31    2  0.0  21.622450  21.714250  15.049000
     32    2  0.0  17.207750  19.336150  16.240200
     33    2  0.0  24.107650  17.428050  13.019000
     34    2  0.0  22.155850  18.182350  14.255200
     35    2  0.0  21.534250  17.004650  14.167000
     36    2  0.0  22.195150  15.891050  13.457000
     37    1  0.0  23.033350  22.825050  12.995200
     38    1  0.0  22.519250  20.499550  12.456100
     39    1  0.0  23.604750  22.304250  15.654800
     40    1  0.0  25.088850  19.653650  13.882900
     41    1  0.0  15.995450  18.674750  12.140500
     42    1  0.0  17.224450  17.198050  14.523900
     43    1  0.0  18.875550  17.688550  12.414300
     44    1  0.0  16.495250  20.194450  14.426100
     45    1  0.0  19.650650  19.931850  12.627600
     46    1  0.0  21.331350  21.433850  16.066800
     47    1  0.0  21.130150  21.013850  14.370600
     48    1  0.0  17.609850  20.275850  16.632500
     49    1  0.0  16.216150  19.161850  16.668600
     50    1  0.0  24.954250  23.327450  14.083000
     51    1  0.0  24.099150  21.389750  11.044000
     52    1  0.0  21.655850  18.980850  14.782900
     53    1  0.0  17.208950  16.133150  12.511000
     54    1  0.0  14.778250  18.598550  14.140000
     55    1  0.0  19.080350  18.926150  10.496600
     56    1  0.0  23.925550  15.453550  12.439900
     57    1  0.0  20.556150  16.838350  14.601800
     58    1  0.0  18.096150  18.291950  17.612300
     59    1  0.0  19.999050  21.950450  9.801300
     60    1  0.0  20.307250  25.204350  13.261400
     61    5  0.0  18.680350  22.118150  39.630900
     62    5  0.0  19.687750  23.226050  42.163600
     63    4  0.0  23.571950  20.310050  43.111400
     64    4  0.0  18.488050  19.659050  42.262100
     65    4  0.0  24.960650  22.489050  41.590300
     66    4  0.0  24.383950  20.674350  39.637700
     67    4  0.0  17.874950  20.918250  40.349200
     68    4  0.0  21.169350  23.030050  42.783000
     69    4  0.0  16.526950  16.714250  40.133200
     70    4  0.0  15.289150  17.839150  42.468600
     71    4  0.0  18.185850  18.636850  38.745000
     72    4  0.0  19.812850  22.550050  40.700600
     73    4  0.0  18.076050  18.291950  44.640100
     74    4  0.0  25.221750  17.585150  40.514900
     75    4  0.0  19.532050  21.394650  38.461000
     76    4  0.0  19.612450  24.806850  41.828300
     77    4  0.0  17.816650  23.251250  39.157600
     78    4  0.0  18.557650  22.700950  42.999800
     79    4  0.0  21.650750  14.795650  41.357900
     80    3  0.0  23.409350  18.443250  41.713900
     81    3  0.0  23.442150  16.197750  40.935100
     82    2  0.0  23.608950  22.040450  41.494000
     83    2  0.0  23.547550  20.709050  40.775700
     84    2  0.0  23.136550  21.670050  42.893400
     85    2  0.0  23.996150  19.744750  41.860300
     86    2  0.0  16.766750  18.044550  40.598200
     87    2  0.0  16.656950  18.046550  42.124200
     88    2  0.0  18.162650  18.482850  40.159600
     89    2  0.0  17.160450  19.370450  42.715000
     90    2  0.0  18.586450  19.784450  40.841900
     91    2  0.0  21.622450  21.714250  43.049000
     92    2  0.0  17.207750  19.336150  44.240200
     93    2  0.0  24.107650  17.428050  41.019000
     94    2  0.0  22.155850  18.182350  42.255200
     95    2  0.0  21.534250  17.004650  42.167000
     96    2  0.0  22.195150  15.891050  41.457000
     97    1  0.0  23.033350  22.825050  40.995200
     98    1  0.0  22.519250  20.499550  40.456100
     99    1  0.0  23.604750  22.304250  43.654800
    100    1  0.0  25.088850  19.653650  41.882900
    101    1  0.0  15.995450  18.674750  40.140500
    102    1  0.0  17.224450  17.198050  42.523900
    103    1  0.0  18.875550  17.688550  40.414300
    104    1  0.0  16.495250  20.194450  42.426100
    105    1  0.0  19.650650  19.931850  40.627600
    106    1  0.0  21.331350  21.433850  44.066800
    107    1  0.0  21.130150  21.013850  42.370600
    108    1  0.0  17.609850  20.275850  44.632500
    109    1  0.0  16.216150  19.161850  44.668600
    110    1  0.0  24.954250  23.327450  42.083000
    111    1  0.0  24.099150  21.389750  39.044000
    112    1  0.0  21.655850  18.980850  42.782900
    113    1  0.0  17.208950  16.133150  40.511000
    114    1  0.0  14.778250  18.598550  42.140000
    115    1  0.0  19.080350  18.926150  38.496600
    116    1  0.0  23.925550  15.453550  40.439900
    117    1  0.0  20.556150  16.838350  42.601800
    118    1  0.0  18.096150  18.291950  45.612300
    119    1  0.0  19.999050  21.950450  37.801300
    120    1  0.0  20.307250  25.204350  41.261400

