# LAMMPS data file created from VNL: Compatible with atom_style atomic.
    240  atoms
      5  atom types
 0.000000  40.000000   xlo xhi
 0.000000  40.000000   ylo yhi
 0.000000  55.413600   zlo zhi

Masses

1   1.007940
2   12.010700
3   14.006700
4   15.999400
5   30.973800

Atoms

      1    5  0.0  18.680350  22.118150  4.630900
      2    5  0.0  19.687750  23.226050  7.163600
      3    4  0.0  23.571950  20.310050  8.111400
      4    4  0.0  18.488050  19.659050  7.262100
      5    4  0.0  24.960650  22.489050  6.590300
      6    4  0.0  24.383950  20.674350  4.637700
      7    4  0.0  17.874950  20.918250  5.349200
      8    4  0.0  21.169350  23.030050  7.783000
      9    4  0.0  16.526950  16.714250  5.133200
     10    4  0.0  15.289150  17.839150  7.468600
     11    4  0.0  18.185850  18.636850  3.745000
     12    4  0.0  19.812850  22.550050  5.700600
     13    4  0.0  18.076050  18.291950  9.640100
     14    4  0.0  25.221750  17.585150  5.514900
     15    4  0.0  19.532050  21.394650  3.461000
     16    4  0.0  19.612450  24.806850  6.828300
     17    4  0.0  17.816650  23.251250  4.157600
     18    4  0.0  18.557650  22.700950  7.999800
     19    4  0.0  21.650750  14.795650  6.357900
     20    3  0.0  23.409350  18.443250  6.713900
     21    3  0.0  23.442150  16.197750  5.935100
     22    2  0.0  23.608950  22.040450  6.494000
     23    2  0.0  23.547550  20.709050  5.775700
     24    2  0.0  23.136550  21.670050  7.893400
     25    2  0.0  23.996150  19.744750  6.860300
     26    2  0.0  16.766750  18.044550  5.598200
     27    2  0.0  16.656950  18.046550  7.124200
     28    2  0.0  18.162650  18.482850  5.159600
     29    2  0.0  17.160450  19.370450  7.715000
     30    2  0.0  18.586450  19.784450  5.841900
     31    2  0.0  21.622450  21.714250  8.049000
     32    2  0.0  17.207750  19.336150  9.240200
     33    2  0.0  24.107650  17.428050  6.019000
     34    2  0.0  22.155850  18.182350  7.255200
     35    2  0.0  21.534250  17.004650  7.167000
     36    2  0.0  22.195150  15.891050  6.457000
     37    1  0.0  23.033350  22.825050  5.995200
     38    1  0.0  22.519250  20.499550  5.456100
     39    1  0.0  23.604750  22.304250  8.654800
     40    1  0.0  25.088850  19.653650  6.882900
     41    1  0.0  15.995450  18.674750  5.140500
     42    1  0.0  17.224450  17.198050  7.523900
     43    1  0.0  18.875550  17.688550  5.414300
     44    1  0.0  16.495250  20.194450  7.426100
     45    1  0.0  19.650650  19.931850  5.627600
     46    1  0.0  21.331350  21.433850  9.066800
     47    1  0.0  21.130150  21.013850  7.370600
     48    1  0.0  17.609850  20.275850  9.632500
     49    1  0.0  16.216150  19.161850  9.668600
     50    1  0.0  24.954250  23.327450  7.083000
     51    1  0.0  24.099150  21.389750  4.044000
     52    1  0.0  21.655850  18.980850  7.782900
     53    1  0.0  17.208950  16.133150  5.511000
     54    1  0.0  14.778250  18.598550  7.140000
     55    1  0.0  19.080350  18.926150  3.496600
     56    1  0.0  23.925550  15.453550  5.439900
     57    1  0.0  20.556150  16.838350  7.601800
     58    1  0.0  18.096150  18.291950  10.612300
     59    1  0.0  19.999050  21.950450  2.801300
     60    1  0.0  20.307250  25.204350  6.261400
     61    5  0.0  18.680350  22.118150  32.630900
     62    5  0.0  19.687750  23.226050  35.163600
     63    4  0.0  23.571950  20.310050  36.111400
     64    4  0.0  18.488050  19.659050  35.262100
     65    4  0.0  24.960650  22.489050  34.590300
     66    4  0.0  24.383950  20.674350  32.637700
     67    4  0.0  17.874950  20.918250  33.349200
     68    4  0.0  21.169350  23.030050  35.783000
     69    4  0.0  16.526950  16.714250  33.133200
     70    4  0.0  15.289150  17.839150  35.468600
     71    4  0.0  18.185850  18.636850  31.745000
     72    4  0.0  19.812850  22.550050  33.700600
     73    4  0.0  18.076050  18.291950  37.640100
     74    4  0.0  25.221750  17.585150  33.514900
     75    4  0.0  19.532050  21.394650  31.461000
     76    4  0.0  19.612450  24.806850  34.828300
     77    4  0.0  17.816650  23.251250  32.157600
     78    4  0.0  18.557650  22.700950  35.999800
     79    4  0.0  21.650750  14.795650  34.357900
     80    3  0.0  23.409350  18.443250  34.713900
     81    3  0.0  23.442150  16.197750  33.935100
     82    2  0.0  23.608950  22.040450  34.494000
     83    2  0.0  23.547550  20.709050  33.775700
     84    2  0.0  23.136550  21.670050  35.893400
     85    2  0.0  23.996150  19.744750  34.860300
     86    2  0.0  16.766750  18.044550  33.598200
     87    2  0.0  16.656950  18.046550  35.124200
     88    2  0.0  18.162650  18.482850  33.159600
     89    2  0.0  17.160450  19.370450  35.715000
     90    2  0.0  18.586450  19.784450  33.841900
     91    2  0.0  21.622450  21.714250  36.049000
     92    2  0.0  17.207750  19.336150  37.240200
     93    2  0.0  24.107650  17.428050  34.019000
     94    2  0.0  22.155850  18.182350  35.255200
     95    2  0.0  21.534250  17.004650  35.167000
     96    2  0.0  22.195150  15.891050  34.457000
     97    1  0.0  23.033350  22.825050  33.995200
     98    1  0.0  22.519250  20.499550  33.456100
     99    1  0.0  23.604750  22.304250  36.654800
    100    1  0.0  25.088850  19.653650  34.882900
    101    1  0.0  15.995450  18.674750  33.140500
    102    1  0.0  17.224450  17.198050  35.523900
    103    1  0.0  18.875550  17.688550  33.414300
    104    1  0.0  16.495250  20.194450  35.426100
    105    1  0.0  19.650650  19.931850  33.627600
    106    1  0.0  21.331350  21.433850  37.066800
    107    1  0.0  21.130150  21.013850  35.370600
    108    1  0.0  17.609850  20.275850  37.632500
    109    1  0.0  16.216150  19.161850  37.668600
    110    1  0.0  24.954250  23.327450  35.083000
    111    1  0.0  24.099150  21.389750  32.044000
    112    1  0.0  21.655850  18.980850  35.782900
    113    1  0.0  17.208950  16.133150  33.511000
    114    1  0.0  14.778250  18.598550  35.140000
    115    1  0.0  19.080350  18.926150  31.496600
    116    1  0.0  23.925550  15.453550  33.439900
    117    1  0.0  20.556150  16.838350  35.601800
    118    1  0.0  18.096150  18.291950  38.612300
    119    1  0.0  19.999050  21.950450  30.801300
    120    1  0.0  20.307250  25.204350  34.261400
    121    5  0.0  18.680350  22.118150  18.630900
    122    5  0.0  19.687750  23.226050  21.163600
    123    4  0.0  23.571950  20.310050  22.111400
    124    4  0.0  18.488050  19.659050  21.262100
    125    4  0.0  24.960650  22.489050  20.590300
    126    4  0.0  24.383950  20.674350  18.637700
    127    4  0.0  17.874950  20.918250  19.349200
    128    4  0.0  21.169350  23.030050  21.783000
    129    4  0.0  16.526950  16.714250  19.133200
    130    4  0.0  15.289150  17.839150  21.468600
    131    4  0.0  18.185850  18.636850  17.745000
    132    4  0.0  19.812850  22.550050  19.700600
    133    4  0.0  18.076050  18.291950  23.640100
    134    4  0.0  25.221750  17.585150  19.514900
    135    4  0.0  19.532050  21.394650  17.461000
    136    4  0.0  19.612450  24.806850  20.828300
    137    4  0.0  17.816650  23.251250  18.157600
    138    4  0.0  18.557650  22.700950  21.999800
    139    4  0.0  21.650750  14.795650  20.357900
    140    3  0.0  23.409350  18.443250  20.713900
    141    3  0.0  23.442150  16.197750  19.935100
    142    2  0.0  23.608950  22.040450  20.494000
    143    2  0.0  23.547550  20.709050  19.775700
    144    2  0.0  23.136550  21.670050  21.893400
    145    2  0.0  23.996150  19.744750  20.860300
    146    2  0.0  16.766750  18.044550  19.598200
    147    2  0.0  16.656950  18.046550  21.124200
    148    2  0.0  18.162650  18.482850  19.159600
    149    2  0.0  17.160450  19.370450  21.715000
    150    2  0.0  18.586450  19.784450  19.841900
    151    2  0.0  21.622450  21.714250  22.049000
    152    2  0.0  17.207750  19.336150  23.240200
    153    2  0.0  24.107650  17.428050  20.019000
    154    2  0.0  22.155850  18.182350  21.255200
    155    2  0.0  21.534250  17.004650  21.167000
    156    2  0.0  22.195150  15.891050  20.457000
    157    1  0.0  23.033350  22.825050  19.995200
    158    1  0.0  22.519250  20.499550  19.456100
    159    1  0.0  23.604750  22.304250  22.654800
    160    1  0.0  25.088850  19.653650  20.882900
    161    1  0.0  15.995450  18.674750  19.140500
    162    1  0.0  17.224450  17.198050  21.523900
    163    1  0.0  18.875550  17.688550  19.414300
    164    1  0.0  16.495250  20.194450  21.426100
    165    1  0.0  19.650650  19.931850  19.627600
    166    1  0.0  21.331350  21.433850  23.066800
    167    1  0.0  21.130150  21.013850  21.370600
    168    1  0.0  17.609850  20.275850  23.632500
    169    1  0.0  16.216150  19.161850  23.668600
    170    1  0.0  24.954250  23.327450  21.083000
    171    1  0.0  24.099150  21.389750  18.044000
    172    1  0.0  21.655850  18.980850  21.782900
    173    1  0.0  17.208950  16.133150  19.511000
    174    1  0.0  14.778250  18.598550  21.140000
    175    1  0.0  19.080350  18.926150  17.496600
    176    1  0.0  23.925550  15.453550  19.439900
    177    1  0.0  20.556150  16.838350  21.601800
    178    1  0.0  18.096150  18.291950  24.612300
    179    1  0.0  19.999050  21.950450  16.801300
    180    1  0.0  20.307250  25.204350  20.261400
    181    5  0.0  18.680350  22.118150  46.630900
    182    5  0.0  19.687750  23.226050  49.163600
    183    4  0.0  23.571950  20.310050  50.111400
    184    4  0.0  18.488050  19.659050  49.262100
    185    4  0.0  24.960650  22.489050  48.590300
    186    4  0.0  24.383950  20.674350  46.637700
    187    4  0.0  17.874950  20.918250  47.349200
    188    4  0.0  21.169350  23.030050  49.783000
    189    4  0.0  16.526950  16.714250  47.133200
    190    4  0.0  15.289150  17.839150  49.468600
    191    4  0.0  18.185850  18.636850  45.745000
    192    4  0.0  19.812850  22.550050  47.700600
    193    4  0.0  18.076050  18.291950  51.640100
    194    4  0.0  25.221750  17.585150  47.514900
    195    4  0.0  19.532050  21.394650  45.461000
    196    4  0.0  19.612450  24.806850  48.828300
    197    4  0.0  17.816650  23.251250  46.157600
    198    4  0.0  18.557650  22.700950  49.999800
    199    4  0.0  21.650750  14.795650  48.357900
    200    3  0.0  23.409350  18.443250  48.713900
    201    3  0.0  23.442150  16.197750  47.935100
    202    2  0.0  23.608950  22.040450  48.494000
    203    2  0.0  23.547550  20.709050  47.775700
    204    2  0.0  23.136550  21.670050  49.893400
    205    2  0.0  23.996150  19.744750  48.860300
    206    2  0.0  16.766750  18.044550  47.598200
    207    2  0.0  16.656950  18.046550  49.124200
    208    2  0.0  18.162650  18.482850  47.159600
    209    2  0.0  17.160450  19.370450  49.715000
    210    2  0.0  18.586450  19.784450  47.841900
    211    2  0.0  21.622450  21.714250  50.049000
    212    2  0.0  17.207750  19.336150  51.240200
    213    2  0.0  24.107650  17.428050  48.019000
    214    2  0.0  22.155850  18.182350  49.255200
    215    2  0.0  21.534250  17.004650  49.167000
    216    2  0.0  22.195150  15.891050  48.457000
    217    1  0.0  23.033350  22.825050  47.995200
    218    1  0.0  22.519250  20.499550  47.456100
    219    1  0.0  23.604750  22.304250  50.654800
    220    1  0.0  25.088850  19.653650  48.882900
    221    1  0.0  15.995450  18.674750  47.140500
    222    1  0.0  17.224450  17.198050  49.523900
    223    1  0.0  18.875550  17.688550  47.414300
    224    1  0.0  16.495250  20.194450  49.426100
    225    1  0.0  19.650650  19.931850  47.627600
    226    1  0.0  21.331350  21.433850  51.066800
    227    1  0.0  21.130150  21.013850  49.370600
    228    1  0.0  17.609850  20.275850  51.632500
    229    1  0.0  16.216150  19.161850  51.668600
    230    1  0.0  24.954250  23.327450  49.083000
    231    1  0.0  24.099150  21.389750  46.044000
    232    1  0.0  21.655850  18.980850  49.782900
    233    1  0.0  17.208950  16.133150  47.511000
    234    1  0.0  14.778250  18.598550  49.140000
    235    1  0.0  19.080350  18.926150  45.496600
    236    1  0.0  23.925550  15.453550  47.439900
    237    1  0.0  20.556150  16.838350  49.601800
    238    1  0.0  18.096150  18.291950  52.612300
    239    1  0.0  19.999050  21.950450  44.801300
    240    1  0.0  20.307250  25.204350  48.261400

