# LAMMPS data file created from VNL: Compatible with atom_style atomic.
    802  atoms
      5  atom types
 0.000000  40.000000   xlo xhi
 0.000000  40.000000   ylo yhi
 0.000000  55.413620   zlo zhi

Masses

1   1.007940
2   12.010700
3   14.006700
4   15.999400
5   30.973800

Atoms

      1    2  0.0  12.657958  15.078046  0.710430
      2    2  0.0  12.657958  17.539048  0.710430
      3    2  0.0  12.657958  20.000050  0.710430
      4    2  0.0  12.657958  22.461051  0.710430
      5    2  0.0  12.657958  24.922053  0.710430
      6    1  0.0  12.657958  27.096521  0.875860
      7    1  0.0  12.657958  14.134079  1.255430
      8    2  0.0  12.657958  16.308547  1.420860
      9    2  0.0  12.657958  18.769549  1.420860
     10    2  0.0  12.657958  21.230550  1.420860
     11    2  0.0  12.657958  23.691552  1.420860
     12    2  0.0  12.657958  26.152554  1.420860
     13    2  0.0  12.657958  23.691552  2.841720
     14    2  0.0  12.657958  26.152554  2.841720
     15    2  0.0  12.657958  16.308547  2.841760
     16    2  0.0  12.657958  18.769549  2.841760
     17    2  0.0  12.657958  21.230550  2.841760
     18    1  0.0  12.657958  14.134079  3.007190
     19    1  0.0  12.657958  27.096521  3.386720
     20    2  0.0  12.657958  24.922053  3.552150
     21    2  0.0  12.657958  15.078046  3.552190
     22    2  0.0  12.657958  17.539048  3.552190
     23    2  0.0  12.657958  20.000050  3.552190
     24    2  0.0  12.657958  22.461051  3.552190
     25    2  0.0  12.657958  24.922053  4.973010
     26    2  0.0  12.657958  15.078046  4.973050
     27    2  0.0  12.657958  17.539048  4.973050
     28    2  0.0  12.657958  20.000050  4.973050
     29    2  0.0  12.657958  22.461051  4.973050
     30    1  0.0  12.657958  27.096521  5.138440
     31    1  0.0  12.657958  14.134079  5.518050
     32    2  0.0  12.657958  23.691552  5.683440
     33    2  0.0  12.657958  26.152554  5.683440
     34    2  0.0  12.657958  16.308547  5.683480
     35    2  0.0  12.657958  18.769549  5.683480
     36    2  0.0  12.657958  21.230550  5.683480
     37    2  0.0  12.657958  23.691552  7.104300
     38    2  0.0  12.657958  26.152554  7.104300
     39    2  0.0  12.657958  16.308547  7.104340
     40    2  0.0  12.657958  18.769549  7.104340
     41    2  0.0  12.657958  21.230550  7.104340
     42    1  0.0  12.657958  14.134079  7.269770
     43    1  0.0  12.657958  27.096521  7.649300
     44    2  0.0  12.657958  24.922053  7.814730
     45    2  0.0  12.657958  15.078046  7.814770
     46    2  0.0  12.657958  17.539048  7.814770
     47    2  0.0  12.657958  20.000050  7.814770
     48    2  0.0  12.657958  22.461051  7.814770
     49    2  0.0  12.657958  24.922053  9.235590
     50    2  0.0  12.657958  15.078046  9.235630
     51    2  0.0  12.657958  17.539048  9.235630
     52    2  0.0  12.657958  20.000050  9.235630
     53    2  0.0  12.657958  22.461051  9.235630
     54    1  0.0  12.657958  27.096521  9.401020
     55    1  0.0  12.657958  14.134079  9.780630
     56    2  0.0  12.657958  23.691552  9.946020
     57    2  0.0  12.657958  26.152554  9.946020
     58    2  0.0  12.657958  16.308547  9.946060
     59    2  0.0  12.657958  18.769549  9.946060
     60    2  0.0  12.657958  21.230550  9.946060
     61    2  0.0  12.657958  23.691552  11.366880
     62    2  0.0  12.657958  26.152554  11.366880
     63    2  0.0  12.657958  16.308547  11.366920
     64    2  0.0  12.657958  18.769549  11.366920
     65    2  0.0  12.657958  21.230550  11.366920
     66    1  0.0  12.657958  14.134079  11.532350
     67    1  0.0  12.657958  27.096521  11.911880
     68    2  0.0  12.657958  24.922053  12.077310
     69    2  0.0  12.657958  15.078046  12.077350
     70    2  0.0  12.657958  17.539048  12.077350
     71    2  0.0  12.657958  20.000050  12.077350
     72    2  0.0  12.657958  22.461051  12.077350
     73    2  0.0  12.657958  24.922053  13.498170
     74    2  0.0  12.657958  15.078046  13.498210
     75    2  0.0  12.657958  17.539048  13.498210
     76    2  0.0  12.657958  20.000050  13.498210
     77    2  0.0  12.657958  22.461051  13.498210
     78    1  0.0  12.657958  27.096521  13.663600
     79    1  0.0  12.657958  14.134079  14.043210
     80    2  0.0  12.657958  23.691552  14.208600
     81    2  0.0  12.657958  26.152554  14.208600
     82    2  0.0  12.657958  16.308547  14.208640
     83    2  0.0  12.657958  18.769549  14.208640
     84    2  0.0  12.657958  21.230550  14.208640
     85    2  0.0  12.657958  23.691552  15.629460
     86    2  0.0  12.657958  26.152554  15.629460
     87    2  0.0  12.657958  16.308547  15.629500
     88    2  0.0  12.657958  18.769549  15.629500
     89    2  0.0  12.657958  21.230550  15.629500
     90    1  0.0  12.657958  14.134079  15.794930
     91    1  0.0  12.657958  27.096521  16.174460
     92    2  0.0  12.657958  24.922053  16.339890
     93    2  0.0  12.657958  15.078046  16.339930
     94    2  0.0  12.657958  17.539048  16.339930
     95    2  0.0  12.657958  20.000050  16.339930
     96    2  0.0  12.657958  22.461051  16.339930
     97    2  0.0  12.657958  24.922053  17.760750
     98    2  0.0  12.657958  15.078046  17.760790
     99    2  0.0  12.657958  17.539048  17.760790
    100    2  0.0  12.657958  20.000050  17.760790
    101    2  0.0  12.657958  22.461051  17.760790
    102    1  0.0  12.657958  27.096521  17.926180
    103    1  0.0  12.657958  14.134079  18.305790
    104    2  0.0  12.657958  23.691552  18.471180
    105    2  0.0  12.657958  26.152554  18.471180
    106    2  0.0  12.657958  16.308547  18.471220
    107    2  0.0  12.657958  18.769549  18.471220
    108    2  0.0  12.657958  21.230550  18.471220
    109    2  0.0  12.657958  16.308547  19.892080
    110    2  0.0  12.657958  18.769549  19.892080
    111    2  0.0  12.657958  21.230550  19.892080
    112    2  0.0  12.657958  23.691552  19.892120
    113    2  0.0  12.657958  26.152554  19.892120
    114    1  0.0  12.657958  14.134079  20.057510
    115    1  0.0  12.657958  27.096521  20.437120
    116    2  0.0  12.657958  15.078046  20.602510
    117    2  0.0  12.657958  17.539048  20.602510
    118    2  0.0  12.657958  20.000050  20.602510
    119    2  0.0  12.657958  22.461051  20.602510
    120    2  0.0  12.657958  24.922053  20.602550
    121    2  0.0  12.657958  15.078046  22.023370
    122    2  0.0  12.657958  17.539048  22.023370
    123    2  0.0  12.657958  20.000050  22.023370
    124    2  0.0  12.657958  22.461051  22.023370
    125    2  0.0  12.657958  24.922053  22.023410
    126    1  0.0  12.657958  27.096521  22.188840
    127    1  0.0  12.657958  14.134079  22.568370
    128    2  0.0  12.657958  16.308547  22.733800
    129    2  0.0  12.657958  18.769549  22.733800
    130    2  0.0  12.657958  21.230550  22.733800
    131    2  0.0  12.657958  23.691552  22.733840
    132    2  0.0  12.657958  26.152554  22.733840
    133    2  0.0  12.657958  16.308547  24.154660
    134    2  0.0  12.657958  18.769549  24.154660
    135    2  0.0  12.657958  21.230550  24.154660
    136    2  0.0  12.657958  23.691552  24.154700
    137    2  0.0  12.657958  26.152554  24.154700
    138    1  0.0  12.657958  14.134079  24.320090
    139    1  0.0  12.657958  27.096521  24.699700
    140    2  0.0  12.657958  15.078046  24.865090
    141    2  0.0  12.657958  17.539048  24.865090
    142    2  0.0  12.657958  20.000050  24.865090
    143    2  0.0  12.657958  22.461051  24.865090
    144    2  0.0  12.657958  24.922053  24.865130
    145    2  0.0  12.657958  15.078046  26.285950
    146    2  0.0  12.657958  17.539048  26.285950
    147    2  0.0  12.657958  20.000050  26.285950
    148    2  0.0  12.657958  22.461051  26.285950
    149    2  0.0  12.657958  24.922053  26.285990
    150    1  0.0  12.657958  27.096521  26.451420
    151    1  0.0  12.657958  14.134079  26.830950
    152    2  0.0  12.657958  16.308547  26.996380
    153    2  0.0  12.657958  18.769549  26.996380
    154    2  0.0  12.657958  21.230550  26.996380
    155    2  0.0  12.657958  23.691552  26.996420
    156    2  0.0  12.657958  26.152554  26.996420
    157    2  0.0  12.657958  16.308547  28.417240
    158    2  0.0  12.657958  18.769549  28.417240
    159    2  0.0  12.657958  21.230550  28.417240
    160    2  0.0  12.657958  23.691552  28.417280
    161    2  0.0  12.657958  26.152554  28.417280
    162    1  0.0  12.657958  14.134079  28.582670
    163    1  0.0  12.657958  27.096521  28.962280
    164    2  0.0  12.657958  15.078046  29.127670
    165    2  0.0  12.657958  17.539048  29.127670
    166    2  0.0  12.657958  20.000050  29.127670
    167    2  0.0  12.657958  22.461051  29.127670
    168    2  0.0  12.657958  24.922053  29.127710
    169    2  0.0  12.657958  15.078046  30.548530
    170    2  0.0  12.657958  17.539048  30.548530
    171    2  0.0  12.657958  20.000050  30.548530
    172    2  0.0  12.657958  22.461051  30.548530
    173    2  0.0  12.657958  24.922053  30.548570
    174    1  0.0  12.657958  27.096521  30.714000
    175    1  0.0  12.657958  14.134079  31.093530
    176    2  0.0  12.657958  16.308547  31.258960
    177    2  0.0  12.657958  18.769549  31.258960
    178    2  0.0  12.657958  21.230550  31.258960
    179    2  0.0  12.657958  23.691552  31.259000
    180    2  0.0  12.657958  26.152554  31.259000
    181    2  0.0  12.657958  16.308547  32.679860
    182    2  0.0  12.657958  18.769549  32.679860
    183    2  0.0  12.657958  21.230550  32.679860
    184    2  0.0  12.657958  23.691552  32.679860
    185    2  0.0  12.657958  26.152554  32.679860
    186    1  0.0  12.657958  14.134079  32.845290
    187    1  0.0  12.657958  27.096521  33.224860
    188    2  0.0  12.657958  15.078046  33.390290
    189    2  0.0  12.657958  17.539048  33.390290
    190    2  0.0  12.657958  20.000050  33.390290
    191    2  0.0  12.657958  22.461051  33.390290
    192    2  0.0  12.657958  24.922053  33.390290
    193    2  0.0  12.657958  24.922053  34.811150
    194    2  0.0  12.657958  15.078046  34.811150
    195    2  0.0  12.657958  17.539048  34.811150
    196    2  0.0  12.657958  20.000050  34.811150
    197    2  0.0  12.657958  22.461051  34.811150
    198    1  0.0  12.657958  27.096521  34.976580
    199    1  0.0  12.657958  14.134079  35.356150
    200    2  0.0  12.657958  16.308547  35.521580
    201    2  0.0  12.657958  18.769549  35.521580
    202    2  0.0  12.657958  21.230550  35.521580
    203    2  0.0  12.657958  23.691552  35.521580
    204    2  0.0  12.657958  26.152554  35.521580
    205    2  0.0  12.657958  16.308547  36.942440
    206    2  0.0  12.657958  18.769549  36.942440
    207    2  0.0  12.657958  21.230550  36.942440
    208    2  0.0  12.657958  23.691552  36.942440
    209    2  0.0  12.657958  26.152554  36.942440
    210    1  0.0  12.657958  14.134079  37.107870
    211    1  0.0  12.657958  27.096521  37.487440
    212    2  0.0  12.657958  15.078046  37.652870
    213    2  0.0  12.657958  17.539048  37.652870
    214    2  0.0  12.657958  20.000050  37.652870
    215    2  0.0  12.657958  22.461051  37.652870
    216    2  0.0  12.657958  24.922053  37.652870
    217    2  0.0  12.657958  15.078046  39.073730
    218    2  0.0  12.657958  17.539048  39.073730
    219    2  0.0  12.657958  20.000050  39.073730
    220    2  0.0  12.657958  22.461051  39.073730
    221    2  0.0  12.657958  24.922053  39.073730
    222    1  0.0  12.657958  27.096521  39.239160
    223    1  0.0  12.657958  14.134079  39.618730
    224    2  0.0  12.657958  16.308547  39.784160
    225    2  0.0  12.657958  18.769549  39.784160
    226    2  0.0  12.657958  21.230550  39.784160
    227    2  0.0  12.657958  23.691552  39.784160
    228    2  0.0  12.657958  26.152554  39.784160
    229    2  0.0  12.657958  23.691552  41.205020
    230    2  0.0  12.657958  26.152554  41.205020
    231    2  0.0  12.657958  16.308547  41.205020
    232    2  0.0  12.657958  18.769549  41.205020
    233    2  0.0  12.657958  21.230550  41.205020
    234    1  0.0  12.657958  14.134079  41.370450
    235    1  0.0  12.657958  27.096521  41.750020
    236    2  0.0  12.657958  15.078046  41.915450
    237    2  0.0  12.657958  17.539048  41.915450
    238    2  0.0  12.657958  20.000050  41.915450
    239    2  0.0  12.657958  22.461051  41.915450
    240    2  0.0  12.657958  24.922053  41.915450
    241    2  0.0  12.657958  15.078046  43.336310
    242    2  0.0  12.657958  17.539048  43.336310
    243    2  0.0  12.657958  20.000050  43.336310
    244    2  0.0  12.657958  22.461051  43.336310
    245    2  0.0  12.657958  24.922053  43.336310
    246    1  0.0  12.657958  27.096521  43.501740
    247    1  0.0  12.657958  14.134079  43.881310
    248    2  0.0  12.657958  16.308547  44.046740
    249    2  0.0  12.657958  18.769549  44.046740
    250    2  0.0  12.657958  21.230550  44.046740
    251    2  0.0  12.657958  23.691552  44.046740
    252    2  0.0  12.657958  26.152554  44.046740
    253    2  0.0  12.657958  16.308547  45.467600
    254    2  0.0  12.657958  18.769549  45.467600
    255    2  0.0  12.657958  21.230550  45.467600
    256    2  0.0  12.657958  23.691552  45.467600
    257    2  0.0  12.657958  26.152554  45.467600
    258    1  0.0  12.657958  14.134079  45.633030
    259    1  0.0  12.657958  27.096521  46.012600
    260    2  0.0  12.657958  15.078046  46.178030
    261    2  0.0  12.657958  17.539048  46.178030
    262    2  0.0  12.657958  20.000050  46.178030
    263    2  0.0  12.657958  22.461051  46.178030
    264    2  0.0  12.657958  24.922053  46.178030
    265    2  0.0  12.657958  15.078046  47.598890
    266    2  0.0  12.657958  17.539048  47.598890
    267    2  0.0  12.657958  20.000050  47.598890
    268    2  0.0  12.657958  22.461051  47.598890
    269    2  0.0  12.657958  24.922053  47.598890
    270    1  0.0  12.657958  27.096521  47.764320
    271    1  0.0  12.657958  14.134079  48.143890
    272    2  0.0  12.657958  23.691552  48.309320
    273    2  0.0  12.657958  26.152554  48.309320
    274    2  0.0  12.657958  16.308547  48.309320
    275    2  0.0  12.657958  18.769549  48.309320
    276    2  0.0  12.657958  21.230550  48.309320
    277    2  0.0  12.657958  16.308547  49.730180
    278    2  0.0  12.657958  18.769549  49.730180
    279    2  0.0  12.657958  21.230550  49.730180
    280    2  0.0  12.657958  23.691552  49.730180
    281    2  0.0  12.657958  26.152554  49.730180
    282    1  0.0  12.657958  14.134079  49.895610
    283    1  0.0  12.657958  27.096521  50.275180
    284    2  0.0  12.657958  15.078046  50.440610
    285    2  0.0  12.657958  17.539048  50.440610
    286    2  0.0  12.657958  20.000050  50.440610
    287    2  0.0  12.657958  22.461051  50.440610
    288    2  0.0  12.657958  24.922053  50.440610
    289    2  0.0  12.657958  15.078046  51.861470
    290    2  0.0  12.657958  17.539048  51.861470
    291    2  0.0  12.657958  20.000050  51.861470
    292    2  0.0  12.657958  22.461051  51.861470
    293    2  0.0  12.657958  24.922053  51.861470
    294    1  0.0  12.657958  27.096521  52.026900
    295    1  0.0  12.657958  14.134079  52.406470
    296    2  0.0  12.657958  16.308547  52.571900
    297    2  0.0  12.657958  18.769549  52.571900
    298    2  0.0  12.657958  21.230550  52.571900
    299    2  0.0  12.657958  23.691552  52.571900
    300    2  0.0  12.657958  26.152554  52.571900
    301    2  0.0  12.657958  16.308547  53.992760
    302    2  0.0  12.657958  18.769549  53.992760
    303    2  0.0  12.657958  21.230550  53.992760
    304    2  0.0  12.657958  23.691552  53.992760
    305    2  0.0  12.657958  26.152554  53.992760
    306    1  0.0  12.657958  14.134079  54.158190
    307    1  0.0  12.657958  27.096521  54.537760
    308    2  0.0  12.657958  15.078046  54.703190
    309    2  0.0  12.657958  17.539048  54.703190
    310    2  0.0  12.657958  20.000050  54.703190
    311    2  0.0  12.657958  22.461051  54.703190
    312    2  0.0  12.657958  24.922053  54.703190
    313    1  0.0  21.376042  25.480897  0.591970
    314    4  0.0  21.544042  24.635947  1.046046
    315    1  0.0  22.555042  22.875400  1.076022
    316    4  0.0  22.985042  22.608658  1.918517
    317    1  0.0  23.071042  25.528004  2.213534
    318    2  0.0  22.160042  24.895286  2.304157
    319    1  0.0  20.507042  22.527363  2.612463
    320    1  0.0  20.467042  26.182754  2.828190
    321    2  0.0  22.458042  23.490635  2.870154
    322    1  0.0  25.076042  28.142395  3.136426
    323    4  0.0  20.865042  20.362172  3.260918
    324    2  0.0  21.152042  25.453270  3.311055
    325    2  0.0  21.030042  23.111406  3.407368
    326    1  0.0  23.183042  23.566356  3.715585
    327    4  0.0  20.351042  24.326464  3.717530
    328    1  0.0  26.934042  23.899698  3.870840
    329    4  0.0  24.760042  28.504553  3.986284
    330    4  0.0  22.661042  27.171149  4.076381
    331    2  0.0  20.830042  20.844798  4.379914
    332    4  0.0  24.783042  25.974261  4.499393
    333    4  0.0  26.204042  23.934307  4.521541
    334    2  0.0  21.796042  26.102106  4.544666
    335    3  0.0  21.003042  22.244373  4.607255
    336    5  0.0  24.033042  27.409591  4.889210
    337    4  0.0  27.342042  26.253311  5.095611
    338    1  0.0  22.378042  25.361774  5.133041
    339    1  0.0  21.023042  26.531817  5.214520
    340    5  0.0  26.158042  25.400640  5.229303
    341    1  0.0  20.323042  19.140196  5.433840
    342    3  0.0  20.617042  20.129815  5.548661
    343    1  0.0  20.697042  23.885404  5.813075
    344    2  0.0  20.720042  22.792058  5.820800
    345    1  0.0  24.131042  23.793601  5.999400
    346    4  0.0  23.959042  27.746647  6.315106
    347    1  0.0  26.157042  22.572179  6.363734
    348    4  0.0  25.709042  25.015459  6.708044
    349    2  0.0  20.430042  20.617899  6.860713
    350    2  0.0  20.391042  22.082631  6.954860
    351    2  0.0  24.514042  24.181302  6.970025
    352    1  0.0  19.733042  24.681225  7.060660
    353    4  0.0  26.024042  22.266923  7.282167
    354    1  0.0  17.321042  23.874741  7.360459
    355    4  0.0  23.511042  24.950250  7.527613
    356    1  0.0  17.705042  25.545088  7.750127
    357    4  0.0  20.259042  19.829276  7.791579
    358    2  0.0  24.980042  23.018177  7.856986
    359    1  0.0  24.070042  22.377241  7.992969
    360    2  0.0  19.363042  24.233614  8.000284
    361    2  0.0  17.848042  24.509672  8.083541
    362    2  0.0  19.691042  22.745967  8.105515
    363    1  0.0  22.535042  27.168095  8.449544
    364    1  0.0  24.800042  26.233919  8.562914
    365    1  0.0  15.733042  21.750189  8.606496
    366    2  0.0  23.930042  25.571931  8.775066
    367    1  0.0  19.916042  24.754365  8.809296
    368    4  0.0  19.295042  22.090756  9.063460
    369    1  0.0  26.332042  24.152561  9.077678
    370    2  0.0  25.400042  23.560631  9.236186
    371    2  0.0  22.793042  26.457496  9.265883
    372    2  0.0  17.215042  24.329621  9.475325
    373    2  0.0  15.722042  24.300590  9.591760
    374    4  0.0  21.662042  25.680413  9.650309
    375    1  0.0  15.702042  26.461883  9.682314
    376    2  0.0  15.741042  21.856133  9.686198
    377    2  0.0  24.307042  24.484804  9.795374
    378    1  0.0  17.406042  23.329658  9.877354
    379    1  0.0  15.752042  19.724137  9.899765
    380    1  0.0  23.379042  23.890224  9.981047
    381    1  0.0  23.201042  27.027030  10.127252
    382    4  0.0  25.762042  22.539646  10.144158
    383    1  0.0  17.758042  24.981757  10.174870
    384    2  0.0  15.709042  25.531144  10.244858
    385    2  0.0  15.727042  23.103897  10.324005
    386    1  0.0  24.954042  22.028022  10.344331
    387    2  0.0  15.745042  20.674242  10.429347
    388    1  0.0  21.410042  25.944860  10.548979
    389    4  0.0  24.673042  25.087312  11.024649
    390    1  0.0  25.646042  25.052184  11.087002
    391    2  0.0  15.701042  25.586838  11.637705
    392    2  0.0  15.719042  23.157664  11.736984
    393    2  0.0  15.737042  20.707385  11.829970
    394    1  0.0  15.752042  18.556025  12.104668
    395    1  0.0  15.690042  26.559957  12.124586
    396    2  0.0  15.706042  24.407868  12.398073
    397    2  0.0  15.724042  21.958560  12.491301
    398    2  0.0  15.742042  19.529143  12.591549
    399    2  0.0  15.697042  24.441982  13.798937
    400    2  0.0  15.715042  22.011114  13.905008
    401    2  0.0  15.733042  19.583867  13.984155
    402    1  0.0  15.687042  25.391845  14.329490
    403    2  0.0  15.702042  23.260091  14.542087
    404    1  0.0  15.737042  18.664780  14.561971
    405    2  0.0  15.720042  20.815633  14.636524
    406    1  0.0  15.695042  23.325292  15.628120
    407    1  0.0  15.714042  20.831844  15.724771
    408    1  0.0  21.376042  21.480897  9.379710
    409    4  0.0  21.544042  20.635947  9.833786
    410    1  0.0  22.555042  18.875400  9.863762
    411    4  0.0  22.985042  18.608658  10.706257
    412    1  0.0  23.071042  21.528004  11.001274
    413    2  0.0  22.160042  20.895286  11.091897
    414    1  0.0  20.507042  18.527363  11.400203
    415    1  0.0  20.467042  22.182754  11.615930
    416    2  0.0  22.458042  19.490635  11.657894
    417    1  0.0  25.076042  24.142395  11.924166
    418    4  0.0  20.865042  16.362172  12.048658
    419    2  0.0  21.152042  21.453270  12.098795
    420    2  0.0  21.030042  19.111406  12.195108
    421    1  0.0  23.183042  19.566356  12.503325
    422    4  0.0  20.351042  20.326464  12.505270
    423    1  0.0  26.934042  19.899698  12.658580
    424    4  0.0  24.760042  24.504553  12.774024
    425    4  0.0  22.661042  23.171149  12.864121
    426    2  0.0  20.830042  16.844798  13.167654
    427    4  0.0  24.783042  21.974261  13.287133
    428    4  0.0  26.204042  19.934307  13.309281
    429    2  0.0  21.796042  22.102106  13.332406
    430    3  0.0  21.003042  18.244373  13.394995
    431    5  0.0  24.033042  23.409591  13.676950
    432    4  0.0  27.342042  22.253311  13.883351
    433    1  0.0  22.378042  21.361774  13.920781
    434    1  0.0  21.023042  22.531817  14.002260
    435    5  0.0  26.158042  21.400640  14.017043
    436    1  0.0  20.323042  15.140196  14.221580
    437    3  0.0  20.617042  16.129815  14.336401
    438    1  0.0  20.697042  19.885404  14.600815
    439    2  0.0  20.720042  18.792058  14.608540
    440    1  0.0  24.131042  19.793601  14.787140
    441    4  0.0  23.959042  23.746647  15.102846
    442    1  0.0  26.157042  18.572179  15.151474
    443    4  0.0  25.709042  21.015459  15.495784
    444    2  0.0  20.430042  16.617899  15.648453
    445    2  0.0  20.391042  18.082631  15.742600
    446    2  0.0  24.514042  20.181302  15.757765
    447    1  0.0  19.733042  20.681225  15.848400
    448    4  0.0  26.024042  18.266923  16.069907
    449    1  0.0  17.321042  19.874741  16.148199
    450    4  0.0  23.511042  20.950250  16.315353
    451    1  0.0  17.705042  21.545088  16.537867
    452    4  0.0  20.259042  15.829276  16.579319
    453    2  0.0  24.980042  19.018177  16.644726
    454    1  0.0  24.070042  18.377241  16.780709
    455    2  0.0  19.363042  20.233614  16.788024
    456    2  0.0  17.848042  20.509672  16.871281
    457    2  0.0  19.691042  18.745967  16.893255
    458    1  0.0  22.535042  23.168095  17.237284
    459    1  0.0  24.800042  22.233919  17.350654
    460    1  0.0  15.733042  17.750189  17.394236
    461    2  0.0  23.930042  21.571931  17.562806
    462    1  0.0  19.916042  20.754365  17.597036
    463    4  0.0  19.295042  18.090756  17.851200
    464    1  0.0  26.332042  20.152561  17.865418
    465    2  0.0  25.400042  19.560631  18.023926
    466    2  0.0  22.793042  22.457496  18.053623
    467    2  0.0  17.215042  20.329621  18.263065
    468    2  0.0  15.722042  20.300590  18.379500
    469    4  0.0  21.662042  21.680413  18.438049
    470    1  0.0  15.702042  22.461883  18.470054
    471    2  0.0  15.741042  17.856133  18.473938
    472    2  0.0  24.307042  20.484804  18.583114
    473    1  0.0  17.406042  19.329658  18.665094
    474    1  0.0  15.752042  15.724137  18.687505
    475    1  0.0  23.379042  19.890224  18.768787
    476    1  0.0  23.201042  23.027030  18.914992
    477    4  0.0  25.762042  18.539646  18.931898
    478    1  0.0  17.758042  20.981757  18.962610
    479    2  0.0  15.709042  21.531144  19.032598
    480    2  0.0  15.727042  19.103897  19.111745
    481    1  0.0  24.954042  18.028022  19.132071
    482    2  0.0  15.745042  16.674242  19.217087
    483    1  0.0  21.410042  21.944860  19.336719
    484    4  0.0  24.673042  21.087312  19.812389
    485    1  0.0  25.646042  21.052184  19.874742
    486    2  0.0  15.701042  21.586838  20.425445
    487    2  0.0  15.719042  19.157664  20.524724
    488    2  0.0  15.737042  16.707385  20.617710
    489    1  0.0  15.752042  14.556025  20.892408
    490    1  0.0  15.690042  22.559957  20.912326
    491    2  0.0  15.706042  20.407868  21.185813
    492    2  0.0  15.724042  17.958560  21.279041
    493    2  0.0  15.742042  15.529143  21.379289
    494    2  0.0  15.697042  20.441982  22.586677
    495    2  0.0  15.715042  18.011114  22.692748
    496    2  0.0  15.733042  15.583867  22.771895
    497    1  0.0  15.687042  21.391845  23.117230
    498    2  0.0  15.702042  19.260091  23.329827
    499    1  0.0  15.737042  14.664780  23.349711
    500    2  0.0  15.720042  16.815633  23.424264
    501    1  0.0  15.695042  19.325292  24.415860
    502    1  0.0  15.714042  16.831844  24.512511
    503    1  0.0  21.376042  25.480897  20.167450
    504    4  0.0  21.544042  24.635947  20.621526
    505    1  0.0  22.555042  22.875400  20.651502
    506    4  0.0  22.985042  22.608658  21.493997
    507    1  0.0  23.071042  25.528004  21.789014
    508    2  0.0  22.160042  24.895286  21.879637
    509    1  0.0  20.507042  22.527363  22.187943
    510    1  0.0  20.467042  26.182754  22.403670
    511    2  0.0  22.458042  23.490635  22.445634
    512    1  0.0  25.076042  28.142395  22.711906
    513    4  0.0  20.865042  20.362172  22.836398
    514    2  0.0  21.152042  25.453270  22.886535
    515    2  0.0  21.030042  23.111406  22.982848
    516    1  0.0  23.183042  23.566356  23.291065
    517    4  0.0  20.351042  24.326464  23.293010
    518    1  0.0  26.934042  23.899698  23.446320
    519    4  0.0  24.760042  28.504553  23.561764
    520    4  0.0  22.661042  27.171149  23.651861
    521    2  0.0  20.830042  20.844798  23.955394
    522    4  0.0  24.783042  25.974261  24.074873
    523    4  0.0  26.204042  23.934307  24.097021
    524    2  0.0  21.796042  26.102106  24.120146
    525    3  0.0  21.003042  22.244373  24.182735
    526    5  0.0  24.033042  27.409591  24.464690
    527    4  0.0  27.342042  26.253311  24.671091
    528    1  0.0  22.378042  25.361774  24.708521
    529    1  0.0  21.023042  26.531817  24.790000
    530    5  0.0  26.158042  25.400640  24.804783
    531    1  0.0  20.323042  19.140196  25.009320
    532    3  0.0  20.617042  20.129815  25.124141
    533    1  0.0  20.697042  23.885404  25.388555
    534    2  0.0  20.720042  22.792058  25.396280
    535    1  0.0  24.131042  23.793601  25.574880
    536    4  0.0  23.959042  27.746647  25.890586
    537    1  0.0  26.157042  22.572179  25.939214
    538    4  0.0  25.709042  25.015459  26.283524
    539    2  0.0  20.430042  20.617899  26.436193
    540    2  0.0  20.391042  22.082631  26.530340
    541    2  0.0  24.514042  24.181302  26.545505
    542    1  0.0  19.733042  24.681225  26.636140
    543    4  0.0  26.024042  22.266923  26.857647
    544    1  0.0  17.321042  23.874741  26.935939
    545    4  0.0  23.511042  24.950250  27.103093
    546    1  0.0  17.705042  25.545088  27.325607
    547    4  0.0  20.259042  19.829276  27.367059
    548    2  0.0  24.980042  23.018177  27.432466
    549    1  0.0  24.070042  22.377241  27.568449
    550    2  0.0  19.363042  24.233614  27.575764
    551    2  0.0  17.848042  24.509672  27.659021
    552    2  0.0  19.691042  22.745967  27.680995
    553    1  0.0  22.535042  27.168095  28.025024
    554    1  0.0  24.800042  26.233919  28.138394
    555    1  0.0  15.733042  21.750189  28.181976
    556    2  0.0  23.930042  25.571931  28.350546
    557    1  0.0  19.916042  24.754365  28.384776
    558    4  0.0  19.295042  22.090756  28.638940
    559    1  0.0  26.332042  24.152561  28.653158
    560    2  0.0  25.400042  23.560631  28.811666
    561    2  0.0  22.793042  26.457496  28.841363
    562    2  0.0  17.215042  24.329621  29.050805
    563    2  0.0  15.722042  24.300590  29.167240
    564    4  0.0  21.662042  25.680413  29.225789
    565    1  0.0  15.702042  26.461883  29.257794
    566    2  0.0  15.741042  21.856133  29.261678
    567    2  0.0  24.307042  24.484804  29.370854
    568    1  0.0  17.406042  23.329658  29.452834
    569    1  0.0  15.752042  19.724137  29.475245
    570    1  0.0  23.379042  23.890224  29.556527
    571    1  0.0  23.201042  27.027030  29.702732
    572    4  0.0  25.762042  22.539646  29.719638
    573    1  0.0  17.758042  24.981757  29.750350
    574    2  0.0  15.709042  25.531144  29.820338
    575    2  0.0  15.727042  23.103897  29.899485
    576    1  0.0  24.954042  22.028022  29.919811
    577    2  0.0  15.745042  20.674242  30.004827
    578    1  0.0  21.410042  25.944860  30.124459
    579    4  0.0  24.673042  25.087312  30.600129
    580    1  0.0  25.646042  25.052184  30.662482
    581    2  0.0  15.701042  25.586838  31.213185
    582    2  0.0  15.719042  23.157664  31.312464
    583    2  0.0  15.737042  20.707385  31.405450
    584    1  0.0  15.752042  18.556025  31.680148
    585    1  0.0  15.690042  26.559957  31.700066