# LAMMPS data file created from VNL: Compatible with atom_style atomic.
     60  atoms
      5  atom types
 0.000000  40.000000   xlo xhi
 0.000000  40.000000   ylo yhi
 0.000000  55.413600   zlo zhi

Masses

1   1.007940
2   12.010700
3   14.006700
4   15.999400
5   30.973800

Atoms

      1    5  0.0  18.680350  22.118150  25.630900
      2    5  0.0  19.687750  23.226050  28.163600
      3    4  0.0  23.571950  20.310050  29.111400
      4    4  0.0  18.488050  19.659050  28.262100
      5    4  0.0  24.960650  22.489050  27.590300
      6    4  0.0  24.383950  20.674350  25.637700
      7    4  0.0  17.874950  20.918250  26.349200
      8    4  0.0  21.169350  23.030050  28.783000
      9    4  0.0  16.526950  16.714250  26.133200
     10    4  0.0  15.289150  17.839150  28.468600
     11    4  0.0  18.185850  18.636850  24.745000
     12    4  0.0  19.812850  22.550050  26.700600
     13    4  0.0  18.076050  18.291950  30.640100
     14    4  0.0  25.221750  17.585150  26.514900
     15    4  0.0  19.532050  21.394650  24.461000
     16    4  0.0  19.612450  24.806850  27.828300
     17    4  0.0  17.816650  23.251250  25.157600
     18    4  0.0  18.557650  22.700950  28.999800
     19    4  0.0  21.650750  14.795650  27.357900
     20    3  0.0  23.409350  18.443250  27.713900
     21    3  0.0  23.442150  16.197750  26.935100
     22    2  0.0  23.608950  22.040450  27.494000
     23    2  0.0  23.547550  20.709050  26.775700
     24    2  0.0  23.136550  21.670050  28.893400
     25    2  0.0  23.996150  19.744750  27.860300
     26    2  0.0  16.766750  18.044550  26.598200
     27    2  0.0  16.656950  18.046550  28.124200
     28    2  0.0  18.162650  18.482850  26.159600
     29    2  0.0  17.160450  19.370450  28.715000
     30    2  0.0  18.586450  19.784450  26.841900
     31    2  0.0  21.622450  21.714250  29.049000
     32    2  0.0  17.207750  19.336150  30.240200
     33    2  0.0  24.107650  17.428050  27.019000
     34    2  0.0  22.155850  18.182350  28.255200
     35    2  0.0  21.534250  17.004650  28.167000
     36    2  0.0  22.195150  15.891050  27.457000
     37    1  0.0  23.033350  22.825050  26.995200
     38    1  0.0  22.519250  20.499550  26.456100
     39    1  0.0  23.604750  22.304250  29.654800
     40    1  0.0  25.088850  19.653650  27.882900
     41    1  0.0  15.995450  18.674750  26.140500
     42    1  0.0  17.224450  17.198050  28.523900
     43    1  0.0  18.875550  17.688550  26.414300
     44    1  0.0  16.495250  20.194450  28.426100
     45    1  0.0  19.650650  19.931850  26.627600
     46    1  0.0  21.331350  21.433850  30.066800
     47    1  0.0  21.130150  21.013850  28.370600
     48    1  0.0  17.609850  20.275850  30.632500
     49    1  0.0  16.216150  19.161850  30.668600
     50    1  0.0  24.954250  23.327450  28.083000
     51    1  0.0  24.099150  21.389750  25.044000
     52    1  0.0  21.655850  18.980850  28.782900
     53    1  0.0  17.208950  16.133150  26.511000
     54    1  0.0  14.778250  18.598550  28.140000
     55    1  0.0  19.080350  18.926150  24.496600
     56    1  0.0  23.925550  15.453550  26.439900
     57    1  0.0  20.556150  16.838350  28.601800
     58    1  0.0  18.096150  18.291950  31.612300
     59    1  0.0  19.999050  21.950450  23.801300
     60    1  0.0  20.307250  25.204350  27.261400

