# LAMMPS data file created from VNL: Compatible with atom_style atomic.
    152  atoms
      3  atom types
 0.000000  30.000000   xlo xhi
 0.000000  30.000000   ylo yhi
 0.000000  55.413580   zlo zhi

Masses

1   1.007940
2   12.010700
3   15.999400

Atoms

      1    1  0.0  16.446533  12.881140  10.658520
      2    1  0.0  16.446533  12.881140  49.021780
      3    1  0.0  16.405392  11.663369  8.481973
      4    1  0.0  16.405392  11.663369  46.845233
      5    1  0.0  16.376952  15.053416  11.949102
      6    1  0.0  16.376952  15.053416  50.312362
      7    2  0.0  16.365719  13.860984  10.121224
      8    2  0.0  16.365719  13.860984  48.484484
      9    2  0.0  16.332112  12.634992  7.929948
     10    2  0.0  16.332112  12.634992  46.293208
     11    1  0.0  16.234170  11.689201  5.954320
     12    1  0.0  16.234170  11.689201  44.317580
     13    2  0.0  16.333613  15.052489  10.830188
     14    2  0.0  16.333613  15.052489  49.193448
     15    2  0.0  16.321398  13.845427  8.674221
     16    2  0.0  16.321398  13.845427  47.037481
     17    2  0.0  16.245194  12.653719  6.523668
     18    2  0.0  16.245194  12.653719  44.886928
     19    1  0.0  16.240975  17.545510  11.969041
     20    1  0.0  16.240975  17.545510  50.332301
     21    2  0.0  16.261012  16.326016  10.144543
     22    2  0.0  16.261012  16.326016  48.507803
     23    2  0.0  16.266971  15.101928  7.958057
     24    2  0.0  16.266971  15.101928  46.321317
     25    2  0.0  16.218444  17.561468  10.849792
     26    2  0.0  16.218444  17.561468  49.213052
     27    2  0.0  16.176619  13.868246  5.796594
     28    2  0.0  16.176619  13.868246  44.159854
     29    2  0.0  16.242427  16.340683  8.696361
     30    2  0.0  16.242427  16.340683  47.059621
     31    2  0.0  16.216948  15.113611  6.510815
     32    2  0.0  16.216948  15.113611  44.874075
     33    1  0.0  16.188933  16.426821  4.718994
     34    1  0.0  16.188933  16.426821  43.082254
     35    2  0.0  16.162304  18.788960  10.153196
     36    2  0.0  16.162304  18.788960  48.516456
     37    2  0.0  16.188863  17.602674  7.993133
     38    2  0.0  16.188863  17.602674  46.356393
     39    1  0.0  16.136209  19.750609  10.725702
     40    1  0.0  16.136209  19.750609  49.088962
     41    2  0.0  16.191347  16.397126  5.836957
     42    2  0.0  16.191347  16.397126  44.200217
     43    2  0.0  16.150644  18.813194  8.742138
     44    2  0.0  16.150644  18.813194  47.105398
     45    2  0.0  16.183331  17.588967  6.547678
     46    2  0.0  16.183331  17.588967  44.910938
     47    1  0.0  16.111592  19.786545  8.189144
     48    1  0.0  16.111592  19.786545  46.552404
     49    1  0.0  16.175032  18.569580  6.006781
     50    1  0.0  16.175032  18.569580  44.370041
     51    2  0.0  15.915435  13.828261  4.293110
     52    2  0.0  15.915435  13.828261  42.656370
     53    1  0.0  13.778628  13.349092  4.576077
     54    1  0.0  13.778628  13.349092  42.939337
     55    1  0.0  16.189574  12.811876  3.885910
     56    1  0.0  16.189574  12.811876  42.249170
     57    1  0.0  14.135452  15.121565  4.470203
     58    1  0.0  14.135452  15.121565  42.833463
     59    1  0.0  16.547497  14.581113  3.736359
     60    1  0.0  16.547497  14.581113  42.099619
     61    2  0.0  14.396672  14.117126  4.027269
     62    2  0.0  14.396672  14.117126  42.390529
     63    3  0.0  12.085616  15.692703  2.128244
     64    3  0.0  12.085616  15.692703  40.491504
     65    2  0.0  14.004000  14.109517  2.508214
     66    2  0.0  14.004000  14.109517  40.871474
     67    2  0.0  12.531797  14.504227  2.357295
     68    2  0.0  12.531797  14.504227  40.720555
     69    1  0.0  14.621594  14.864325  1.945180
     70    1  0.0  14.621594  14.864325  40.308440
     71    1  0.0  14.185429  13.085852  2.069687
     72    1  0.0  14.185429  13.085852  40.432947
     73    3  0.0  11.680318  13.419374  2.563619
     74    3  0.0  11.680318  13.419374  40.926879
     75    1  0.0  10.728633  13.879407  2.487690
     76    1  0.0  10.728633  13.879407  40.850950
     77    1  0.0  16.446533  12.881140  23.446260
     78    1  0.0  16.405392  11.663369  21.269713
     79    1  0.0  16.376952  15.053416  24.736842
     80    2  0.0  16.365719  13.860984  22.908964
     81    2  0.0  16.332112  12.634992  20.717688
     82    1  0.0  16.234170  11.689201  18.742060
     83    2  0.0  16.333613  15.052489  23.617928
     84    2  0.0  16.321398  13.845427  21.461961
     85    2  0.0  16.245194  12.653719  19.311408
     86    1  0.0  16.240975  17.545510  24.756781
     87    2  0.0  16.261012  16.326016  22.932283
     88    2  0.0  16.266971  15.101928  20.745797
     89    2  0.0  16.218444  17.561468  23.637532
     90    2  0.0  16.176619  13.868246  18.584334
     91    2  0.0  16.242427  16.340683  21.484101
     92    2  0.0  16.216948  15.113611  19.298555
     93    1  0.0  16.188933  16.426821  17.506734
     94    2  0.0  16.162304  18.788960  22.940936
     95    2  0.0  16.188863  17.602674  20.780873
     96    1  0.0  16.136209  19.750609  23.513442
     97    2  0.0  16.191347  16.397126  18.624697
     98    2  0.0  16.150644  18.813194  21.529878
     99    2  0.0  16.183331  17.588967  19.335418
    100    1  0.0  16.111592  19.786545  20.976884
    101    1  0.0  16.175032  18.569580  18.794521
    102    2  0.0  15.915435  13.828261  17.080850
    103    1  0.0  13.778628  13.349092  17.363817
    104    1  0.0  16.189574  12.811876  16.673650
    105    1  0.0  14.135452  15.121565  17.257943
    106    1  0.0  16.547497  14.581113  16.524099
    107    2  0.0  14.396672  14.117126  16.815009
    108    3  0.0  12.085616  15.692703  14.915984
    109    2  0.0  14.004000  14.109517  15.295954
    110    2  0.0  12.531797  14.504227  15.145035
    111    1  0.0  14.621594  14.864325  14.732920
    112    1  0.0  14.185429  13.085852  14.857427
    113    3  0.0  11.680318  13.419374  15.351359
    114    1  0.0  10.728633  13.879407  15.275430
    115    1  0.0  16.446533  12.881140  36.234000
    116    1  0.0  16.405392  11.663369  34.057453
    117    1  0.0  16.376952  15.053416  37.524582
    118    2  0.0  16.365719  13.860984  35.696704
    119    2  0.0  16.332112  12.634992  33.505428
    120    1  0.0  16.234170  11.689201  31.529800
    121    2  0.0  16.333613  15.052489  36.405668
    122    2  0.0  16.321398  13.845427  34.249701
    123    2  0.0  16.245194  12.653719  32.099148
    124    1  0.0  16.240975  17.545510  37.544521
    125    2  0.0  16.261012  16.326016  35.720023
    126    2  0.0  16.266971  15.101928  33.533537
    127    2  0.0  16.218444  17.561468  36.425272
    128    2  0.0  16.176619  13.868246  31.372074
    129    2  0.0  16.242427  16.340683  34.271841
    130    2  0.0  16.216948  15.113611  32.086295
    131    1  0.0  16.188933  16.426821  30.294474
    132    2  0.0  16.162304  18.788960  35.728676
    133    2  0.0  16.188863  17.602674  33.568613
    134    1  0.0  16.136209  19.750609  36.301182
    135    2  0.0  16.191347  16.397126  31.412437
    136    2  0.0  16.150644  18.813194  34.317618
    137    2  0.0  16.183331  17.588967  32.123158
    138    1  0.0  16.111592  19.786545  33.764624
    139    1  0.0  16.175032  18.569580  31.582261
    140    2  0.0  15.915435  13.828261  29.868590
    141    1  0.0  13.778628  13.349092  30.151557
    142    1  0.0  16.189574  12.811876  29.461390
    143    1  0.0  14.135452  15.121565  30.045683
    144    1  0.0  16.547497  14.581113  29.311839
    145    2  0.0  14.396672  14.117126  29.602749
    146    3  0.0  12.085616  15.692703  27.703724
    147    2  0.0  14.004000  14.109517  28.083694
    148    2  0.0  12.531797  14.504227  27.932775
    149    1  0.0  14.621594  14.864325  27.520660
    150    1  0.0  14.185429  13.085852  27.645167
    151    3  0.0  11.680318  13.419374  28.139099
    152    1  0.0  10.728633  13.879407  28.063170

