# LAMMPS data file created from VNL: Compatible with atom_style atomic.
    300  atoms
      5  atom types
 0.000000  30.000000   xlo xhi
 0.000000  40.000000   ylo yhi
 0.000000  55.413600   zlo zhi

Masses

1   1.007940
2   12.010700
3   14.006700
4   15.999400
5   30.973800

Atoms

      1    5  0.0  13.680350  22.118150  3.832313
      2    5  0.0  13.680350  22.118150  15.148740
      3    5  0.0  13.680350  22.118150  26.465167
      4    5  0.0  13.680350  22.118150  37.781594
      5    5  0.0  13.680350  22.118150  48.598021
      6    5  0.0  14.687750  23.226050  6.365013
      7    5  0.0  14.687750  23.226050  17.681440
      8    5  0.0  14.687750  23.226050  28.997867
      9    5  0.0  14.687750  23.226050  40.314294
     10    5  0.0  14.687750  23.226050  51.130721
     11    4  0.0  18.571950  20.310050  7.312813
     12    4  0.0  18.571950  20.310050  18.629240
     13    4  0.0  18.571950  20.310050  29.945667
     14    4  0.0  18.571950  20.310050  41.262094
     15    4  0.0  18.571950  20.310050  52.078521
     16    4  0.0  13.488050  19.659050  6.463513
     17    4  0.0  13.488050  19.659050  17.779940
     18    4  0.0  13.488050  19.659050  29.096367
     19    4  0.0  13.488050  19.659050  40.412794
     20    4  0.0  13.488050  19.659050  51.229221
     21    4  0.0  19.960650  22.489050  5.791713
     22    4  0.0  19.960650  22.489050  17.108140
     23    4  0.0  19.960650  22.489050  28.424567
     24    4  0.0  19.960650  22.489050  39.740994
     25    4  0.0  19.960650  22.489050  50.557421
     26    4  0.0  19.383950  20.674350  3.839113
     27    4  0.0  19.383950  20.674350  15.155540
     28    4  0.0  19.383950  20.674350  26.471967
     29    4  0.0  19.383950  20.674350  37.788394
     30    4  0.0  19.383950  20.674350  48.604821
     31    4  0.0  12.874950  20.918250  4.550613
     32    4  0.0  12.874950  20.918250  15.867040
     33    4  0.0  12.874950  20.918250  27.183467
     34    4  0.0  12.874950  20.918250  38.499894
     35    4  0.0  12.874950  20.918250  49.316321
     36    4  0.0  16.169350  23.030050  6.984413
     37    4  0.0  16.169350  23.030050  18.300840
     38    4  0.0  16.169350  23.030050  29.617267
     39    4  0.0  16.169350  23.030050  40.933694
     40    4  0.0  16.169350  23.030050  51.750121
     41    4  0.0  11.526950  16.714250  4.334613
     42    4  0.0  11.526950  16.714250  15.651040
     43    4  0.0  11.526950  16.714250  26.967467
     44    4  0.0  11.526950  16.714250  38.283894
     45    4  0.0  11.526950  16.714250  49.100321
     46    4  0.0  10.289150  17.839150  6.670013
     47    4  0.0  10.289150  17.839150  17.986440
     48    4  0.0  10.289150  17.839150  29.302867
     49    4  0.0  10.289150  17.839150  40.619294
     50    4  0.0  10.289150  17.839150  51.435721
     51    4  0.0  13.185850  18.636850  2.946413
     52    4  0.0  13.185850  18.636850  14.262840
     53    4  0.0  13.185850  18.636850  25.579267
     54    4  0.0  13.185850  18.636850  36.895694
     55    4  0.0  13.185850  18.636850  47.712121
     56    4  0.0  14.812850  22.550050  4.902013
     57    4  0.0  14.812850  22.550050  16.218440
     58    4  0.0  14.812850  22.550050  27.534867
     59    4  0.0  14.812850  22.550050  38.851294
     60    4  0.0  14.812850  22.550050  49.667721
     61    4  0.0  13.076050  18.291950  8.841513
     62    4  0.0  13.076050  18.291950  20.157940
     63    4  0.0  13.076050  18.291950  31.474367
     64    4  0.0  13.076050  18.291950  42.790794
     65    4  0.0  13.076050  18.291950  53.607221
     66    4  0.0  20.221750  17.585150  4.716313
     67    4  0.0  20.221750  17.585150  16.032740
     68    4  0.0  20.221750  17.585150  27.349167
     69    4  0.0  20.221750  17.585150  38.665594
     70    4  0.0  20.221750  17.585150  49.482021
     71    4  0.0  14.532050  21.394650  2.662413
     72    4  0.0  14.532050  21.394650  13.978840
     73    4  0.0  14.532050  21.394650  25.295267
     74    4  0.0  14.532050  21.394650  36.611694
     75    4  0.0  14.532050  21.394650  47.428121
     76    4  0.0  14.612450  24.806850  6.029713
     77    4  0.0  14.612450  24.806850  17.346140
     78    4  0.0  14.612450  24.806850  28.662567
     79    4  0.0  14.612450  24.806850  39.978994
     80    4  0.0  14.612450  24.806850  50.795421
     81    4  0.0  12.816650  23.251250  3.359013
     82    4  0.0  12.816650  23.251250  14.675440
     83    4  0.0  12.816650  23.251250  25.991867
     84    4  0.0  12.816650  23.251250  37.308294
     85    4  0.0  12.816650  23.251250  48.124721
     86    4  0.0  13.557650  22.700950  7.201213
     87    4  0.0  13.557650  22.700950  18.517640
     88    4  0.0  13.557650  22.700950  29.834067
     89    4  0.0  13.557650  22.700950  41.150494
     90    4  0.0  13.557650  22.700950  51.966921
     91    4  0.0  16.650750  14.795650  5.559313
     92    4  0.0  16.650750  14.795650  16.875740
     93    4  0.0  16.650750  14.795650  28.192167
     94    4  0.0  16.650750  14.795650  39.508594
     95    4  0.0  16.650750  14.795650  50.325021
     96    3  0.0  18.409350  18.443250  5.915313
     97    3  0.0  18.409350  18.443250  17.231740
     98    3  0.0  18.409350  18.443250  28.548167
     99    3  0.0  18.409350  18.443250  39.864594
    100    3  0.0  18.409350  18.443250  50.681021
    101    3  0.0  18.442150  16.197750  5.136513
    102    3  0.0  18.442150  16.197750  16.452940
    103    3  0.0  18.442150  16.197750  27.769367
    104    3  0.0  18.442150  16.197750  39.085794
    105    3  0.0  18.442150  16.197750  49.902221
    106    2  0.0  18.608950  22.040450  5.695413
    107    2  0.0  18.608950  22.040450  17.011840
    108    2  0.0  18.608950  22.040450  28.328267
    109    2  0.0  18.608950  22.040450  39.644694
    110    2  0.0  18.608950  22.040450  50.461121
    111    2  0.0  18.547550  20.709050  4.977113
    112    2  0.0  18.547550  20.709050  16.293540
    113    2  0.0  18.547550  20.709050  27.609967
    114    2  0.0  18.547550  20.709050  38.926394
    115    2  0.0  18.547550  20.709050  49.742821
    116    2  0.0  18.136550  21.670050  7.094813
    117    2  0.0  18.136550  21.670050  18.411240
    118    2  0.0  18.136550  21.670050  29.727667
    119    2  0.0  18.136550  21.670050  41.044094
    120    2  0.0  18.136550  21.670050  51.860521
    121    2  0.0  18.996150  19.744750  6.061713
    122    2  0.0  18.996150  19.744750  17.378140
    123    2  0.0  18.996150  19.744750  28.694567
    124    2  0.0  18.996150  19.744750  40.010994
    125    2  0.0  18.996150  19.744750  50.827421
    126    2  0.0  11.766750  18.044550  4.799613
    127    2  0.0  11.766750  18.044550  16.116040
    128    2  0.0  11.766750  18.044550  27.432467
    129    2  0.0  11.766750  18.044550  38.748894
    130    2  0.0  11.766750  18.044550  49.565321
    131    2  0.0  11.656950  18.046550  6.325613
    132    2  0.0  11.656950  18.046550  17.642040
    133    2  0.0  11.656950  18.046550  28.958467
    134    2  0.0  11.656950  18.046550  40.274894
    135    2  0.0  11.656950  18.046550  51.091321
    136    2  0.0  13.162650  18.482850  4.361013
    137    2  0.0  13.162650  18.482850  15.677440
    138    2  0.0  13.162650  18.482850  26.993867
    139    2  0.0  13.162650  18.482850  38.310294
    140    2  0.0  13.162650  18.482850  49.126721
    141    2  0.0  12.160450  19.370450  6.916413
    142    2  0.0  12.160450  19.370450  18.232840
    143    2  0.0  12.160450  19.370450  29.549267
    144    2  0.0  12.160450  19.370450  40.865694
    145    2  0.0  12.160450  19.370450  51.682121
    146    2  0.0  13.586450  19.784450  5.043313
    147    2  0.0  13.586450  19.784450  16.359740
    148    2  0.0  13.586450  19.784450  27.676167
    149    2  0.0  13.586450  19.784450  38.992594
    150    2  0.0  13.586450  19.784450  49.809021
    151    2  0.0  16.622450  21.714250  7.250413
    152    2  0.0  16.622450  21.714250  18.566840
    153    2  0.0  16.622450  21.714250  29.883267
    154    2  0.0  16.622450  21.714250  41.199694
    155    2  0.0  16.622450  21.714250  52.016121
    156    2  0.0  12.207750  19.336150  8.441613
    157    2  0.0  12.207750  19.336150  19.758040
    158    2  0.0  12.207750  19.336150  31.074467
    159    2  0.0  12.207750  19.336150  42.390894
    160    2  0.0  12.207750  19.336150  53.207321
    161    2  0.0  19.107650  17.428050  5.220413
    162    2  0.0  19.107650  17.428050  16.536840
    163    2  0.0  19.107650  17.428050  27.853267
    164    2  0.0  19.107650  17.428050  39.169694
    165    2  0.0  19.107650  17.428050  49.986121
    166    2  0.0  17.155850  18.182350  6.456613
    167    2  0.0  17.155850  18.182350  17.773040
    168    2  0.0  17.155850  18.182350  29.089467
    169    2  0.0  17.155850  18.182350  40.405894
    170    2  0.0  17.155850  18.182350  51.222321
    171    2  0.0  16.534250  17.004650  6.368413
    172    2  0.0  16.534250  17.004650  17.684840
    173    2  0.0  16.534250  17.004650  29.001267
    174    2  0.0  16.534250  17.004650  40.317694
    175    2  0.0  16.534250  17.004650  51.134121
    176    2  0.0  17.195150  15.891050  5.658413
    177    2  0.0  17.195150  15.891050  16.974840
    178    2  0.0  17.195150  15.891050  28.291267
    179    2  0.0  17.195150  15.891050  39.607694
    180    2  0.0  17.195150  15.891050  50.424121
    181    1  0.0  18.033350  22.825050  5.196613
    182    1  0.0  18.033350  22.825050  16.513040
    183    1  0.0  18.033350  22.825050  27.829467
    184    1  0.0  18.033350  22.825050  39.145894
    185    1  0.0  18.033350  22.825050  49.962321
    186    1  0.0  17.519250  20.499550  4.657513
    187    1  0.0  17.519250  20.499550  15.973940
    188    1  0.0  17.519250  20.499550  27.290367
    189    1  0.0  17.519250  20.499550  38.606794
    190    1  0.0  17.519250  20.499550  49.423221
    191    1  0.0  18.604750  22.304250  7.856213
    192    1  0.0  18.604750  22.304250  19.172640
    193    1  0.0  18.604750  22.304250  30.489067
    194    1  0.0  18.604750  22.304250  41.805494
    195    1  0.0  18.604750  22.304250  52.621921
    196    1  0.0  20.088850  19.653650  6.084313
    197    1  0.0  20.088850  19.653650  17.400740
    198    1  0.0  20.088850  19.653650  28.717167
    199    1  0.0  20.088850  19.653650  40.033594
    200    1  0.0  20.088850  19.653650  50.850021
    201    1  0.0  10.995450  18.674750  4.341913
    202    1  0.0  10.995450  18.674750  15.658340
    203    1  0.0  10.995450  18.674750  26.974767
    204    1  0.0  10.995450  18.674750  38.291194
    205    1  0.0  10.995450  18.674750  49.107621
    206    1  0.0  12.224450  17.198050  6.725313
    207    1  0.0  12.224450  17.198050  18.041740
    208    1  0.0  12.224450  17.198050  29.358167
    209    1  0.0  12.224450  17.198050  40.674594
    210    1  0.0  12.224450  17.198050  51.491021
    211    1  0.0  13.875550  17.688550  4.615713
    212    1  0.0  13.875550  17.688550  15.932140
    213    1  0.0  13.875550  17.688550  27.248567
    214    1  0.0  13.875550  17.688550  38.564994
    215    1  0.0  13.875550  17.688550  49.381421
    216    1  0.0  11.495250  20.194450  6.627513
    217    1  0.0  11.495250  20.194450  17.943940
    218    1  0.0  11.495250  20.194450  29.260367
    219    1  0.0  11.495250  20.194450  40.576794
    220    1  0.0  11.495250  20.194450  51.393221
    221    1  0.0  14.650650  19.931850  4.829013
    222    1  0.0  14.650650  19.931850  16.145440
    223    1  0.0  14.650650  19.931850  27.461867
    224    1  0.0  14.650650  19.931850  38.778294
    225    1  0.0  14.650650  19.931850  49.594721
    226    1  0.0  16.331350  21.433850  8.268213
    227    1  0.0  16.331350  21.433850  19.584640
    228    1  0.0  16.331350  21.433850  30.901067
    229    1  0.0  16.331350  21.433850  42.217494
    230    1  0.0  16.331350  21.433850  53.033921
    231    1  0.0  16.130150  21.013850  6.572013
    232    1  0.0  16.130150  21.013850  17.888440
    233    1  0.0  16.130150  21.013850  29.204867
    234    1  0.0  16.130150  21.013850  40.521294
    235    1  0.0  16.130150  21.013850  51.337721
    236    1  0.0  12.609850  20.275850  8.833913
    237    1  0.0  12.609850  20.275850  20.150340
    238    1  0.0  12.609850  20.275850  31.466767
    239    1  0.0  12.609850  20.275850  42.783194
    240    1  0.0  12.609850  20.275850  53.599621
    241    1  0.0  11.216150  19.161850  8.870013
    242    1  0.0  11.216150  19.161850  20.186440
    243    1  0.0  11.216150  19.161850  31.502867
    244    1  0.0  11.216150  19.161850  42.819294
    245    1  0.0  11.216150  19.161850  53.635721
    246    1  0.0  19.954250  23.327450  6.284413
    247    1  0.0  19.954250  23.327450  17.600840
    248    1  0.0  19.954250  23.327450  28.917267
    249    1  0.0  19.954250  23.327450  40.233694
    250    1  0.0  19.954250  23.327450  51.050121
    251    1  0.0  19.099150  21.389750  3.245413
    252    1  0.0  19.099150  21.389750  14.561840
    253    1  0.0  19.099150  21.389750  25.878267
    254    1  0.0  19.099150  21.389750  37.194694
    255    1  0.0  19.099150  21.389750  48.011121
    256    1  0.0  16.655850  18.980850  6.984313
    257    1  0.0  16.655850  18.980850  18.300740
    258    1  0.0  16.655850  18.980850  29.617167
    259    1  0.0  16.655850  18.980850  40.933594
    260    1  0.0  16.655850  18.980850  51.750021
    261    1  0.0  12.208950  16.133150  4.712413
    262    1  0.0  12.208950  16.133150  16.028840
    263    1  0.0  12.208950  16.133150  27.345267
    264    1  0.0  12.208950  16.133150  38.661694
    265    1  0.0  12.208950  16.133150  49.478121
    266    1  0.0  9.778250  18.598550  6.341413
    267    1  0.0  9.778250  18.598550  17.657840
    268    1  0.0  9.778250  18.598550  28.974267
    269    1  0.0  9.778250  18.598550  40.290694
    270    1  0.0  9.778250  18.598550  51.107121
    271    1  0.0  14.080350  18.926150  2.698013
    272    1  0.0  14.080350  18.926150  14.014440
    273    1  0.0  14.080350  18.926150  25.330867
    274    1  0.0  14.080350  18.926150  36.647294
    275    1  0.0  14.080350  18.926150  47.463721
    276    1  0.0  18.925550  15.453550  4.641313
    277    1  0.0  18.925550  15.453550  15.957740
    278    1  0.0  18.925550  15.453550  27.274167
    279    1  0.0  18.925550  15.453550  38.590594
    280    1  0.0  18.925550  15.453550  49.407021
    281    1  0.0  15.556150  16.838350  6.803213
    282    1  0.0  15.556150  16.838350  18.119640
    283    1  0.0  15.556150  16.838350  29.436067
    284    1  0.0  15.556150  16.838350  40.752494
    285    1  0.0  15.556150  16.838350  51.568921
    286    1  0.0  13.096150  18.291950  9.813713
    287    1  0.0  13.096150  18.291950  21.130140
    288    1  0.0  13.096150  18.291950  32.446567
    289    1  0.0  13.096150  18.291950  43.762994
    290    1  0.0  13.096150  18.291950  54.579421
    291    1  0.0  14.999050  21.950450  2.002713
    292    1  0.0  14.999050  21.950450  13.319140
    293    1  0.0  14.999050  21.950450  24.635567
    294    1  0.0  14.999050  21.950450  35.951994
    295    1  0.0  14.999050  21.950450  46.768421
    296    1  0.0  15.307250  25.204350  5.462813
    297    1  0.0  15.307250  25.204350  16.779240
    298    1  0.0  15.307250  25.204350  28.095667
    299    1  0.0  15.307250  25.204350  39.412094
    300    1  0.0  15.307250  25.204350  50.228521


