# LAMMPS data file created from VNL: Compatible with atom_style atomic.
    114  atoms
      3  atom types
 0.000000  30.000000   xlo xhi
 0.000000  30.000000   ylo yhi
 0.000000  55.413580   zlo zhi

Masses

1   1.007940
2   12.010700
3   15.999400

Atoms

      1    1  0.0  16.446533  12.881140  14.921100
      2    1  0.0  16.446533  12.881140  49.021780
      3    1  0.0  16.405392  11.663369  12.744553
      4    1  0.0  16.405392  11.663369  46.845233
      5    1  0.0  16.376952  15.053416  16.211682
      6    1  0.0  16.376952  15.053416  50.312362
      7    2  0.0  16.365719  13.860984  14.383804
      8    2  0.0  16.365719  13.860984  48.484484
      9    2  0.0  16.332112  12.634992  12.192528
     10    2  0.0  16.332112  12.634992  46.293208
     11    1  0.0  16.234170  11.689201  10.216900
     12    1  0.0  16.234170  11.689201  44.317580
     13    2  0.0  16.333613  15.052489  15.092768
     14    2  0.0  16.333613  15.052489  49.193448
     15    2  0.0  16.321398  13.845427  12.936801
     16    2  0.0  16.321398  13.845427  47.037481
     17    2  0.0  16.245194  12.653719  10.786248
     18    2  0.0  16.245194  12.653719  44.886928
     19    1  0.0  16.240975  17.545510  16.231621
     20    1  0.0  16.240975  17.545510  50.332301
     21    2  0.0  16.261012  16.326016  14.407123
     22    2  0.0  16.261012  16.326016  48.507803
     23    2  0.0  16.266971  15.101928  12.220637
     24    2  0.0  16.266971  15.101928  46.321317
     25    2  0.0  16.218444  17.561468  15.112372
     26    2  0.0  16.218444  17.561468  49.213052
     27    2  0.0  16.176619  13.868246  10.059174
     28    2  0.0  16.176619  13.868246  44.159854
     29    2  0.0  16.242427  16.340683  12.958941
     30    2  0.0  16.242427  16.340683  47.059621
     31    2  0.0  16.216948  15.113611  10.773395
     32    2  0.0  16.216948  15.113611  44.874075
     33    1  0.0  16.188933  16.426821  8.981574
     34    1  0.0  16.188933  16.426821  43.082254
     35    2  0.0  16.162304  18.788960  14.415776
     36    2  0.0  16.162304  18.788960  48.516456
     37    2  0.0  16.188863  17.602674  12.255713
     38    2  0.0  16.188863  17.602674  46.356393
     39    1  0.0  16.136209  19.750609  14.988282
     40    1  0.0  16.136209  19.750609  49.088962
     41    2  0.0  16.191347  16.397126  10.099537
     42    2  0.0  16.191347  16.397126  44.200217
     43    2  0.0  16.150644  18.813194  13.004718
     44    2  0.0  16.150644  18.813194  47.105398
     45    2  0.0  16.183331  17.588967  10.810258
     46    2  0.0  16.183331  17.588967  44.910938
     47    1  0.0  16.111592  19.786545  12.451724
     48    1  0.0  16.111592  19.786545  46.552404
     49    1  0.0  16.175032  18.569580  10.269361
     50    1  0.0  16.175032  18.569580  44.370041
     51    2  0.0  15.915435  13.828261  8.555690
     52    2  0.0  15.915435  13.828261  42.656370
     53    1  0.0  13.778628  13.349092  8.838657
     54    1  0.0  13.778628  13.349092  42.939337
     55    1  0.0  16.189574  12.811876  8.148490
     56    1  0.0  16.189574  12.811876  42.249170
     57    1  0.0  14.135452  15.121565  8.732783
     58    1  0.0  14.135452  15.121565  42.833463
     59    1  0.0  16.547497  14.581113  7.998939
     60    1  0.0  16.547497  14.581113  42.099619
     61    2  0.0  14.396672  14.117126  8.289849
     62    2  0.0  14.396672  14.117126  42.390529
     63    3  0.0  12.085616  15.692703  6.390824
     64    3  0.0  12.085616  15.692703  40.491504
     65    2  0.0  14.004000  14.109517  6.770794
     66    2  0.0  14.004000  14.109517  40.871474
     67    2  0.0  12.531797  14.504227  6.619875
     68    2  0.0  12.531797  14.504227  40.720555
     69    1  0.0  14.621594  14.864325  6.207760
     70    1  0.0  14.621594  14.864325  40.308440
     71    1  0.0  14.185429  13.085852  6.332267
     72    1  0.0  14.185429  13.085852  40.432947
     73    3  0.0  11.680318  13.419374  6.826199
     74    3  0.0  11.680318  13.419374  40.926879
     75    1  0.0  10.728633  13.879407  6.750270
     76    1  0.0  10.728633  13.879407  40.850950
     77    1  0.0  16.446533  12.881140  31.971420
     78    1  0.0  16.405392  11.663369  29.794873
     79    1  0.0  16.376952  15.053416  33.262002
     80    2  0.0  16.365719  13.860984  31.434124
     81    2  0.0  16.332112  12.634992  29.242848
     82    1  0.0  16.234170  11.689201  27.267220
     83    2  0.0  16.333613  15.052489  32.143088
     84    2  0.0  16.321398  13.845427  29.987121
     85    2  0.0  16.245194  12.653719  27.836568
     86    1  0.0  16.240975  17.545510  33.281941
     87    2  0.0  16.261012  16.326016  31.457443
     88    2  0.0  16.266971  15.101928  29.270957
     89    2  0.0  16.218444  17.561468  32.162692
     90    2  0.0  16.176619  13.868246  27.109494
     91    2  0.0  16.242427  16.340683  30.009261
     92    2  0.0  16.216948  15.113611  27.823715
     93    1  0.0  16.188933  16.426821  26.031894
     94    2  0.0  16.162304  18.788960  31.466096
     95    2  0.0  16.188863  17.602674  29.306033
     96    1  0.0  16.136209  19.750609  32.038602
     97    2  0.0  16.191347  16.397126  27.149857
     98    2  0.0  16.150644  18.813194  30.055038
     99    2  0.0  16.183331  17.588967  27.860578
    100    1  0.0  16.111592  19.786545  29.502044
    101    1  0.0  16.175032  18.569580  27.319681
    102    2  0.0  15.915435  13.828261  25.606010
    103    1  0.0  13.778628  13.349092  25.888977
    104    1  0.0  16.189574  12.811876  25.198810
    105    1  0.0  14.135452  15.121565  25.783103
    106    1  0.0  16.547497  14.581113  25.049259
    107    2  0.0  14.396672  14.117126  25.340169
    108    3  0.0  12.085616  15.692703  23.441144
    109    2  0.0  14.004000  14.109517  23.821114
    110    2  0.0  12.531797  14.504227  23.670195
    111    1  0.0  14.621594  14.864325  23.258080
    112    1  0.0  14.185429  13.085852  23.382587
    113    3  0.0  11.680318  13.419374  23.876519
    114    1  0.0  10.728633  13.879407  23.800590

