# LAMMPS data file created from VNL: Compatible with atom_style atomic.
    190  atoms
      3  atom types
 0.000000  30.000000   xlo xhi
 0.000000  30.000000   ylo yhi
 0.000000  55.413580   zlo zhi

Masses

1   1.007940
2   12.010700
3   15.999400

Atoms

      1    1  0.0  16.446533  12.881140  10.658520
      2    1  0.0  16.446533  6.881140  40.021780
      3    1  0.0  16.405392  11.663369  8.481973
      4    1  0.0  16.405392  5.663369  37.845233
      5    1  0.0  16.376952  15.053416  11.949102
      6    1  0.0  16.376952  9.053416  41.312362
      7    2  0.0  16.365719  13.860984  10.121224
      8    2  0.0  16.365719  7.860984  39.484484
      9    2  0.0  16.332112  12.634992  7.929948
     10    2  0.0  16.332112  6.634992  37.293208
     11    1  0.0  16.234170  11.689201  5.954320
     12    1  0.0  16.234170  5.689201  35.317580
     13    2  0.0  16.333613  15.052489  10.830188
     14    2  0.0  16.333613  9.052489  40.193448
     15    2  0.0  16.321398  13.845427  8.674221
     16    2  0.0  16.321398  7.845427  38.037481
     17    2  0.0  16.245194  12.653719  6.523668
     18    2  0.0  16.245194  6.653719  35.886928
     19    1  0.0  16.240975  17.545510  11.969041
     20    1  0.0  16.240975  11.545510  41.332301
     21    2  0.0  16.261012  16.326016  10.144543
     22    2  0.0  16.261012  10.326016  39.507803
     23    2  0.0  16.266971  15.101928  7.958057
     24    2  0.0  16.266971  9.101928  37.321317
     25    2  0.0  16.218444  17.561468  10.849792
     26    2  0.0  16.218444  11.561468  40.213052
     27    2  0.0  16.176619  13.868246  5.796594
     28    2  0.0  16.176619  7.868246  35.159854
     29    2  0.0  16.242427  16.340683  8.696361
     30    2  0.0  16.242427  10.340683  38.059621
     31    2  0.0  16.216948  15.113611  6.510815
     32    2  0.0  16.216948  9.113611  35.874075
     33    1  0.0  16.188933  16.426821  4.718994
     34    1  0.0  16.188933  10.426821  34.082254
     35    2  0.0  16.162304  18.788960  10.153196
     36    2  0.0  16.162304  12.788960  39.516456
     37    2  0.0  16.188863  17.602674  7.993133
     38    2  0.0  16.188863  11.602674  37.356393
     39    1  0.0  16.136209  19.750609  10.725702
     40    1  0.0  16.136209  13.750609  40.088962
     41    2  0.0  16.191347  16.397126  5.836957
     42    2  0.0  16.191347  10.397126  35.200217
     43    2  0.0  16.150644  18.813194  8.742138
     44    2  0.0  16.150644  12.813194  38.105398
     45    2  0.0  16.183331  17.588967  6.547678
     46    2  0.0  16.183331  11.588967  35.910938
     47    1  0.0  16.111592  19.786545  8.189144
     48    1  0.0  16.111592  13.786545  37.552404
     49    1  0.0  16.175032  18.569580  6.006781
     50    1  0.0  16.175032  12.569580  35.370041
     51    2  0.0  15.915435  13.828261  4.293110
     52    2  0.0  15.915435  7.828261  33.656370
     53    1  0.0  13.778628  13.349092  4.576077
     54    1  0.0  13.778628  7.349092  33.939337
     55    1  0.0  16.189574  12.811876  3.885910
     56    1  0.0  16.189574  6.811876  33.249170
     57    1  0.0  14.135452  15.121565  4.470203
     58    1  0.0  14.135452  9.121565  33.833463
     59    1  0.0  16.547497  14.581113  3.736359
     60    1  0.0  16.547497  8.581113  33.099619
     61    2  0.0  14.396672  14.117126  4.027269
     62    2  0.0  14.396672  8.117126  33.390529
     63    3  0.0  12.085616  15.692703  2.128244
     64    3  0.0  12.085616  9.692703  31.491504
     65    2  0.0  14.004000  14.109517  2.508214
     66    2  0.0  14.004000  8.109517  31.871474
     67    2  0.0  12.531797  14.504227  2.357295
     68    2  0.0  12.531797  8.504227  31.720555
     69    1  0.0  14.621594  14.864325  1.945180
     70    1  0.0  14.621594  8.864325  31.308440
     71    1  0.0  14.185429  13.085852  2.069687
     72    1  0.0  14.185429  7.085852  31.432947
     73    3  0.0  11.680318  13.419374  2.563619
     74    3  0.0  11.680318  7.419374  31.926879
     75    1  0.0  10.728633  13.879407  2.487690
     76    1  0.0  10.728633  7.879407  31.850950
     77    1  0.0  16.446533  6.881140  19.446260
     78    1  0.0  16.405392  5.663369  17.269713
     79    1  0.0  16.376952  9.053416  20.736842
     80    2  0.0  16.365719  7.860984  18.908964
     81    2  0.0  16.332112  6.634992  16.717688
     82    1  0.0  16.234170  5.689201  14.742060
     83    2  0.0  16.333613  9.052489  19.617928
     84    2  0.0  16.321398  7.845427  17.461961
     85    2  0.0  16.245194  6.653719  15.311408
     86    1  0.0  16.240975  11.545510  20.756781
     87    2  0.0  16.261012  10.326016  18.932283
     88    2  0.0  16.266971  9.101928  16.745797
     89    2  0.0  16.218444  11.561468  19.637532
     90    2  0.0  16.176619  7.868246  14.584334
     91    2  0.0  16.242427  10.340683  17.484101
     92    2  0.0  16.216948  9.113611  15.298555
     93    1  0.0  16.188933  10.426821  13.506734
     94    2  0.0  16.162304  12.788960  18.940936
     95    2  0.0  16.188863  11.602674  16.780873
     96    1  0.0  16.136209  13.750609  19.513442
     97    2  0.0  16.191347  10.397126  14.624697
     98    2  0.0  16.150644  12.813194  17.529878
     99    2  0.0  16.183331  11.588967  15.335418
    100    1  0.0  16.111592  13.786545  16.976884
    101    1  0.0  16.175032  12.569580  14.794521
    102    2  0.0  15.915435  7.828261  13.080850
    103    1  0.0  13.778628  7.349092  13.363817
    104    1  0.0  16.189574  6.811876  12.673650
    105    1  0.0  14.135452  9.121565  13.257943
    106    1  0.0  16.547497  8.581113  12.524099
    107    2  0.0  14.396672  8.117126  12.815009
    108    3  0.0  12.085616  9.692703  10.915984
    109    2  0.0  14.004000  8.109517  11.295954
    110    2  0.0  12.531797  8.504227  11.145035
    111    1  0.0  14.621594  8.864325  10.732920
    112    1  0.0  14.185429  7.085852  10.857427
    113    3  0.0  11.680318  7.419374  11.351359
    114    1  0.0  10.728633  7.879407  11.275430
    115    1  0.0  16.446533  12.881140  31.234000
    116    1  0.0  16.405392  11.663369  29.057453
    117    1  0.0  16.376952  15.053416  32.524582
    118    2  0.0  16.365719  13.860984  30.696704
    119    2  0.0  16.332112  12.634992  28.505428
    120    1  0.0  16.234170  11.689201  26.529800
    121    2  0.0  16.333613  15.052489  31.405668
    122    2  0.0  16.321398  13.845427  29.249701
    123    2  0.0  16.245194  12.653719  27.099148
    124    1  0.0  16.240975  17.545510  32.544521
    125    2  0.0  16.261012  16.326016  30.720023
    126    2  0.0  16.266971  15.101928  28.533537
    127    2  0.0  16.218444  17.561468  31.425272
    128    2  0.0  16.176619  13.868246  26.372074
    129    2  0.0  16.242427  16.340683  29.271841
    130    2  0.0  16.216948  15.113611  27.086295
    131    1  0.0  16.188933  16.426821  25.294474
    132    2  0.0  16.162304  18.788960  30.728676
    133    2  0.0  16.188863  17.602674  28.568613
    134    1  0.0  16.136209  19.750609  31.301182
    135    2  0.0  16.191347  16.397126  26.412437
    136    2  0.0  16.150644  18.813194  29.317618
    137    2  0.0  16.183331  17.588967  27.123158
    138    1  0.0  16.111592  19.786545  28.764624
    139    1  0.0  16.175032  18.569580  26.582261
    140    2  0.0  15.915435  13.828261  24.868590
    141    1  0.0  13.778628  13.349092  25.151557
    142    1  0.0  16.189574  12.811876  24.461390
    143    1  0.0  14.135452  15.121565  25.045683
    144    1  0.0  16.547497  14.581113  24.311839
    145    2  0.0  14.396672  14.117126  24.602749
    146    3  0.0  12.085616  15.692703  22.703724
    147    2  0.0  14.004000  14.109517  23.083694
    148    2  0.0  12.531797  14.504227  22.932775
    149    1  0.0  14.621594  14.864325  22.520660
    150    1  0.0  14.185429  13.085852  22.645167
    151    3  0.0  11.680318  13.419374  23.139099
    152    1  0.0  10.728633  13.879407  23.063170
    153    1  0.0  16.446533  12.881140  52.021780
    154    1  0.0  16.405392  11.663369  49.845233
    155    1  0.0  16.376952  15.053416  53.312362
    156    2  0.0  16.365719  13.860984  51.484484
    157    2  0.0  16.332112  12.634992  49.293208
    158    1  0.0  16.234170  11.689201  47.317580
    159    2  0.0  16.333613  15.052489  52.193448
    160    2  0.0  16.321398  13.845427  50.037481
    161    2  0.0  16.245194  12.653719  47.886928
    162    1  0.0  16.240975  17.545510  53.332301
    163    2  0.0  16.261012  16.326016  51.507803
    164    2  0.0  16.266971  15.101928  49.321317
    165    2  0.0  16.218444  17.561468  52.213052
    166    2  0.0  16.176619  13.868246  47.159854
    167    2  0.0  16.242427  16.340683  50.059621
    168    2  0.0  16.216948  15.113611  47.874075
    169    1  0.0  16.188933  16.426821  46.082254
    170    2  0.0  16.162304  18.788960  51.516456
    171    2  0.0  16.188863  17.602674  49.356393
    172    1  0.0  16.136209  19.750609  52.088962
    173    2  0.0  16.191347  16.397126  47.200217
    174    2  0.0  16.150644  18.813194  50.105398
    175    2  0.0  16.183331  17.588967  47.910938
    176    1  0.0  16.111592  19.786545  49.552404
    177    1  0.0  16.175032  18.569580  47.370041
    178    2  0.0  15.915435  13.828261  45.656370
    179    1  0.0  13.778628  13.349092  45.939337
    180    1  0.0  16.189574  12.811876  45.249170
    181    1  0.0  14.135452  15.121565  45.833463
    182    1  0.0  16.547497  14.581113  45.099619
    183    2  0.0  14.396672  14.117126  45.390529
    184    3  0.0  12.085616  15.692703  43.491504
    185    2  0.0  14.004000  14.109517  43.871474
    186    2  0.0  12.531797  14.504227  43.720555
    187    1  0.0  14.621594  14.864325  43.308440
    188    1  0.0  14.185429  13.085852  43.432947
    189    3  0.0  11.680318  13.419374  43.926879
    190    1  0.0  10.728633  13.879407  43.850950


