# LAMMPS data file created from VNL: Compatible with atom_style atomic.
   8813  atoms
      5  atom types
 0.000000  42.948970   xlo xhi
 0.000000  42.816221   ylo yhi
 0.000000  57.924849   zlo zhi

Masses

1   1.007940
2   12.010700
3   14.006700
4   15.999400
5   30.973800

Atoms

	1	2 0.0	13.395794	15.873096	1.132075
	2	2 0.0	13.395794	18.334096	1.132075
	3	2 0.0	13.395794	20.795096	1.132075
	4	2 0.0	13.395794	23.256096	1.132075
	5	2 0.0	13.395794	25.717097	1.132075
	6	1 0.0	13.395794	27.891575	1.297505
	7	1 0.0	13.395794	14.929136	1.677075
	8	2 0.0	13.395794	17.103615	1.842505
	9	2 0.0	13.395794	19.564616	1.842505
	10	2 0.0	13.395794	22.025616	1.842505
	11	2 0.0	13.395794	24.486617	1.842505
	12	2 0.0	13.395794	26.947615	1.842505
	13	2 0.0	13.395794	24.486617	3.263365
	14	2 0.0	13.395794	26.947615	3.263365
	15	2 0.0	13.395794	17.103615	3.263405
	16	2 0.0	13.395794	19.564616	3.263405
	17	2 0.0	13.395794	22.025616	3.263405
	18	1 0.0	13.395794	14.929136	3.428835
	19	1 0.0	13.395794	27.891575	3.808365
	20	2 0.0	13.395794	25.717097	3.973795
	21	2 0.0	13.395794	15.873096	3.973835
	22	2 0.0	13.395794	18.334096	3.973835
	23	2 0.0	13.395794	20.795096	3.973835
	24	2 0.0	13.395794	23.256096	3.973835
	25	2 0.0	13.395794	25.717097	5.394655
	26	2 0.0	13.395794	15.873096	5.394695
	27	2 0.0	13.395794	18.334096	5.394695
	28	2 0.0	13.395794	20.795096	5.394695
	29	2 0.0	13.395794	23.256096	5.394695
	30	1 0.0	13.395794	27.891575	5.560085
	31	1 0.0	13.395794	14.929136	5.939695
	32	2 0.0	13.395794	24.486617	6.105085
	33	2 0.0	13.395794	26.947615	6.105085
	34	2 0.0	13.395794	17.103615	6.105145
	35	2 0.0	13.395794	19.564616	6.105145
	36	2 0.0	13.395794	22.025616	6.105145
	37	2 0.0	13.395794	24.486617	7.525945
	38	2 0.0	13.395794	26.947615	7.525945
	39	2 0.0	13.395794	17.103615	7.526005
	40	2 0.0	13.395794	19.564616	7.526005
	41	2 0.0	13.395794	22.025616	7.526005
	42	1 0.0	13.395794	14.929136	7.691415
	43	1 0.0	13.395794	27.891575	8.070935
	44	2 0.0	13.395794	25.717097	8.236345
	45	2 0.0	13.395794	15.873096	8.236405
	46	2 0.0	13.395794	18.334096	8.236405
	47	2 0.0	13.395794	20.795096	8.236405
	48	2 0.0	13.395794	23.256096	8.236405
	49	2 0.0	13.395794	25.717097	9.657205
	50	2 0.0	13.395794	15.873096	9.657265
	51	2 0.0	13.395794	18.334096	9.657265
	52	2 0.0	13.395794	20.795096	9.657265
	53	2 0.0	13.395794	23.256096	9.657265
	54	1 0.0	13.395794	27.891575	9.822675
	55	1 0.0	13.395794	14.929136	10.202255
	56	2 0.0	13.395794	24.486617	10.367665
	57	2 0.0	13.395794	26.947615	10.367665
	58	2 0.0	13.395794	17.103615	10.367725
	59	2 0.0	13.395794	19.564616	10.367725
	60	2 0.0	13.395794	22.025616	10.367725
	61	2 0.0	13.395794	24.486617	11.788525
	62	2 0.0	13.395794	26.947615	11.788525
	63	2 0.0	13.395794	17.103615	11.788585
	64	2 0.0	13.395794	19.564616	11.788585
	65	2 0.0	13.395794	22.025616	11.788585
	66	1 0.0	13.395794	14.929136	11.953995
	67	1 0.0	13.395794	27.891575	12.333515
	68	2 0.0	13.395794	25.717097	12.498925
	69	2 0.0	13.395794	15.873096	12.498985
	70	2 0.0	13.395794	18.334096	12.498985
	71	2 0.0	13.395794	20.795096	12.498985
	72	2 0.0	13.395794	23.256096	12.498985
	73	2 0.0	13.395794	25.717097	13.919785
	74	2 0.0	13.395794	15.873096	13.919845
	75	2 0.0	13.395794	18.334096	13.919845
	76	2 0.0	13.395794	20.795096	13.919845
	77	2 0.0	13.395794	23.256096	13.919845
	78	1 0.0	13.395794	27.891575	14.085255
	79	1 0.0	13.395794	14.929136	14.464835
	80	2 0.0	13.395794	24.486617	14.630245
	81	2 0.0	13.395794	26.947615	14.630245
	82	2 0.0	13.395794	17.103615	14.630305
	83	2 0.0	13.395794	19.564616	14.630305
	84	2 0.0	13.395794	22.025616	14.630305
	85	2 0.0	13.395794	24.486617	16.051105
	86	2 0.0	13.395794	26.947615	16.051105
	87	2 0.0	13.395794	17.103615	16.051165
	88	2 0.0	13.395794	19.564616	16.051165
	89	2 0.0	13.395794	22.025616	16.051165
	90	1 0.0	13.395794	14.929136	16.216575
	91	1 0.0	13.395794	27.891575	16.596095
	92	2 0.0	13.395794	25.717097	16.761506
	93	2 0.0	13.395794	15.873096	16.761565
	94	2 0.0	13.395794	18.334096	16.761565
	95	2 0.0	13.395794	20.795096	16.761565
	96	2 0.0	13.395794	23.256096	16.761565
	97	2 0.0	13.395794	25.717097	18.182364
	98	2 0.0	13.395794	15.873096	18.182425
	99	2 0.0	13.395794	18.334096	18.182425
	100	2 0.0	13.395794	20.795096	18.182425
	101	2 0.0	13.395794	23.256096	18.182425
	102	1 0.0	13.395794	27.891575	18.347834
	103	1 0.0	13.395794	14.929136	18.727416
	104	2 0.0	13.395794	24.486617	18.892825
	105	2 0.0	13.395794	26.947615	18.892825
	106	2 0.0	13.395794	17.103615	18.892884
	107	2 0.0	13.395794	19.564616	18.892884
	108	2 0.0	13.395794	22.025616	18.892884
	109	2 0.0	13.395794	17.103615	20.313744
	110	2 0.0	13.395794	19.564616	20.313744
	111	2 0.0	13.395794	22.025616	20.313744
	112	2 0.0	13.395794	24.486617	20.313744
	113	2 0.0	13.395794	26.947615	20.313744
	114	1 0.0	13.395794	14.929136	20.479155
	115	1 0.0	13.395794	27.891575	20.858735
	116	2 0.0	13.395794	15.873096	21.024146
	117	2 0.0	13.395794	18.334096	21.024146
	118	2 0.0	13.395794	20.795096	21.024146
	119	2 0.0	13.395794	23.256096	21.024146
	120	2 0.0	13.395794	25.717097	21.024205
	121	2 0.0	13.395794	15.873096	22.445004
	122	2 0.0	13.395794	18.334096	22.445004
	123	2 0.0	13.395794	20.795096	22.445004
	124	2 0.0	13.395794	23.256096	22.445004
	125	2 0.0	13.395794	25.717097	22.445065
	126	1 0.0	13.395794	27.891575	22.610474
	127	1 0.0	13.395794	14.929136	22.989995
	128	2 0.0	13.395794	17.103615	23.155465
	129	2 0.0	13.395794	19.564616	23.155465
	130	2 0.0	13.395794	22.025616	23.155465
	131	2 0.0	13.395794	24.486617	23.155465
	132	2 0.0	13.395794	26.947615	23.155465
	133	2 0.0	13.395794	17.103615	24.576325
	134	2 0.0	13.395794	19.564616	24.576325
	135	2 0.0	13.395794	22.025616	24.576325
	136	2 0.0	13.395794	24.486617	24.576325
	137	2 0.0	13.395794	26.947615	24.576325
	138	1 0.0	13.395794	14.929136	24.741734
	139	1 0.0	13.395794	27.891575	25.121316
	140	2 0.0	13.395794	15.873096	25.286725
	141	2 0.0	13.395794	18.334096	25.286725
	142	2 0.0	13.395794	20.795096	25.286725
	143	2 0.0	13.395794	23.256096	25.286725
	144	2 0.0	13.395794	25.717097	25.286786
	145	2 0.0	13.395794	15.873096	26.707585
	146	2 0.0	13.395794	18.334096	26.707585
	147	2 0.0	13.395794	20.795096	26.707585
	148	2 0.0	13.395794	23.256096	26.707585
	149	2 0.0	13.395794	25.717097	26.707644
	150	1 0.0	13.395794	27.891575	26.873046
	151	1 0.0	13.395794	14.929136	27.252576
	152	2 0.0	13.395794	17.103615	27.418046
	153	2 0.0	13.395794	19.564616	27.418046
	154	2 0.0	13.395794	22.025616	27.418046
	155	2 0.0	13.395794	24.486617	27.418046
	156	2 0.0	13.395794	26.947615	27.418046
	157	2 0.0	13.395794	17.103615	28.838845
	158	2 0.0	13.395794	19.564616	28.838845
	159	2 0.0	13.395794	22.025616	28.838845
	160	2 0.0	13.395794	24.486617	28.838904
	161	2 0.0	13.395794	26.947615	28.838904
	162	1 0.0	13.395794	14.929136	29.004315
	163	1 0.0	13.395794	27.891575	29.383895
	164	2 0.0	13.395794	15.873096	29.549306
	165	2 0.0	13.395794	18.334096	29.549306
	166	2 0.0	13.395794	20.795096	29.549306
	167	2 0.0	13.395794	23.256096	29.549306
	168	2 0.0	13.395794	25.717097	29.549355
	169	2 0.0	13.395794	15.873096	30.970164
	170	2 0.0	13.395794	18.334096	30.970164
	171	2 0.0	13.395794	20.795096	30.970164
	172	2 0.0	13.395794	23.256096	30.970164
	173	2 0.0	13.395794	25.717097	30.970225
	174	1 0.0	13.395794	27.891575	31.135634
	175	1 0.0	13.395794	14.929136	31.515155
	176	2 0.0	13.395794	17.103615	31.680566
	177	2 0.0	13.395794	19.564616	31.680566
	178	2 0.0	13.395794	22.025616	31.680566
	179	2 0.0	13.395794	24.486617	31.680625
	180	2 0.0	13.395794	26.947615	31.680625
	181	2 0.0	13.395794	17.103615	33.101485
	182	2 0.0	13.395794	19.564616	33.101485
	183	2 0.0	13.395794	22.025616	33.101485
	184	2 0.0	13.395794	24.486617	33.101485
	185	2 0.0	13.395794	26.947615	33.101485
	186	1 0.0	13.395794	14.929136	33.266944
	187	1 0.0	13.395794	27.891575	33.646476
	188	2 0.0	13.395794	15.873096	33.811946
	189	2 0.0	13.395794	18.334096	33.811946
	190	2 0.0	13.395794	20.795096	33.811946
	191	2 0.0	13.395794	23.256096	33.811946
	192	2 0.0	13.395794	25.717097	33.811946
	193	2 0.0	13.395794	25.717097	35.232806
	194	2 0.0	13.395794	15.873096	35.232806
	195	2 0.0	13.395794	18.334096	35.232806
	196	2 0.0	13.395794	20.795096	35.232806
	197	2 0.0	13.395794	23.256096	35.232806
	198	1 0.0	13.395794	27.891575	35.398215
	199	1 0.0	13.395794	14.929136	35.777797
	200	2 0.0	13.395794	17.103615	35.943206
	201	2 0.0	13.395794	19.564616	35.943206
	202	2 0.0	13.395794	22.025616	35.943206
	203	2 0.0	13.395794	24.486617	35.943206
	204	2 0.0	13.395794	26.947615	35.943206
	205	2 0.0	13.395794	17.103615	37.364066
	206	2 0.0	13.395794	19.564616	37.364066
	207	2 0.0	13.395794	22.025616	37.364066
	208	2 0.0	13.395794	24.486617	37.364066
	209	2 0.0	13.395794	26.947615	37.364066
	210	1 0.0	13.395794	14.929136	37.529525
	211	1 0.0	13.395794	27.891575	37.909056
	212	2 0.0	13.395794	15.873096	38.074527
	213	2 0.0	13.395794	18.334096	38.074527
	214	2 0.0	13.395794	20.795096	38.074527
	215	2 0.0	13.395794	23.256096	38.074527
	216	2 0.0	13.395794	25.717097	38.074527
	217	2 0.0	13.395794	15.873096	39.495383
	218	2 0.0	13.395794	18.334096	39.495383
	219	2 0.0	13.395794	20.795096	39.495383
	220	2 0.0	13.395794	23.256096	39.495383
	221	2 0.0	13.395794	25.717097	39.495383
	222	1 0.0	13.395794	27.891575	39.660796
	223	1 0.0	13.395794	14.929136	40.040374
	224	2 0.0	13.395794	17.103615	40.205787
	225	2 0.0	13.395794	19.564616	40.205787
	226	2 0.0	13.395794	22.025616	40.205787
	227	2 0.0	13.395794	24.486617	40.205787
	228	2 0.0	13.395794	26.947615	40.205787
	229	2 0.0	13.395794	24.486617	41.626647
	230	2 0.0	13.395794	26.947615	41.626647
	231	2 0.0	13.395794	17.103615	41.626647
	232	2 0.0	13.395794	19.564616	41.626647
	233	2 0.0	13.395794	22.025616	41.626647
	234	1 0.0	13.395794	14.929136	41.792056
	235	1 0.0	13.395794	27.891575	42.171634
	236	2 0.0	13.395794	15.873096	42.337104
	237	2 0.0	13.395794	18.334096	42.337104
	238	2 0.0	13.395794	20.795096	42.337104
	239	2 0.0	13.395794	23.256096	42.337104
	240	2 0.0	13.395794	25.717097	42.337104
	241	2 0.0	13.395794	15.873096	43.757964
	242	2 0.0	13.395794	18.334096	43.757964
	243	2 0.0	13.395794	20.795096	43.757964
	244	2 0.0	13.395794	23.256096	43.757964
	245	2 0.0	13.395794	25.717097	43.757964
	246	1 0.0	13.395794	27.891575	43.923365
	247	1 0.0	13.395794	14.929136	44.302955
	248	2 0.0	13.395794	17.103615	44.468364
	249	2 0.0	13.395794	19.564616	44.468364
	250	2 0.0	13.395794	22.025616	44.468364
	251	2 0.0	13.395794	24.486617	44.468364
	252	2 0.0	13.395794	26.947615	44.468364
	253	2 0.0	13.395794	17.103615	45.889224
	254	2 0.0	13.395794	19.564616	45.889224
	255	2 0.0	13.395794	22.025616	45.889224
	256	2 0.0	13.395794	24.486617	45.889224
	257	2 0.0	13.395794	26.947615	45.889224
	258	1 0.0	13.395794	14.929136	46.054637
	259	1 0.0	13.395794	27.891575	46.434214
	260	2 0.0	13.395794	15.873096	46.599685
	261	2 0.0	13.395794	18.334096	46.599685
	262	2 0.0	13.395794	20.795096	46.599685
	263	2 0.0	13.395794	23.256096	46.599685
	264	2 0.0	13.395794	25.717097	46.599685
	265	2 0.0	13.395794	15.873096	48.020545
	266	2 0.0	13.395794	18.334096	48.020545
	267	2 0.0	13.395794	20.795096	48.020545
	268	2 0.0	13.395794	23.256096	48.020545
	269	2 0.0	13.395794	25.717097	48.020545
	270	1 0.0	13.395794	27.891575	48.185954
	271	1 0.0	13.395794	14.929136	48.565535
	272	2 0.0	13.395794	24.486617	48.730944
	273	2 0.0	13.395794	26.947615	48.730944
	274	2 0.0	13.395794	17.103615	48.730944
	275	2 0.0	13.395794	19.564616	48.730944
	276	2 0.0	13.395794	22.025616	48.730944
	277	2 0.0	13.395794	17.103615	50.151805
	278	2 0.0	13.395794	19.564616	50.151805
	279	2 0.0	13.395794	22.025616	50.151805
	280	2 0.0	13.395794	24.486617	50.151805
	281	2 0.0	13.395794	26.947615	50.151805
	282	1 0.0	13.395794	14.929136	50.317214
	283	1 0.0	13.395794	27.891575	50.696795
	284	2 0.0	13.395794	15.873096	50.862265
	285	2 0.0	13.395794	18.334096	50.862265
	286	2 0.0	13.395794	20.795096	50.862265
	287	2 0.0	13.395794	23.256096	50.862265
	288	2 0.0	13.395794	25.717097	50.862265
	289	2 0.0	13.395794	15.873096	52.283126
	290	2 0.0	13.395794	18.334096	52.283126
	291	2 0.0	13.395794	20.795096	52.283126
	292	2 0.0	13.395794	23.256096	52.283126
	293	2 0.0	13.395794	25.717097	52.283126
	294	1 0.0	13.395794	27.891575	52.448535
	295	1 0.0	13.395794	14.929136	52.828116
	296	2 0.0	13.395794	17.103615	52.993525
	297	2 0.0	13.395794	19.564616	52.993525
	298	2 0.0	13.395794	22.025616	52.993525
	299	2 0.0	13.395794	24.486617	52.993525
	300	2 0.0	13.395794	26.947615	52.993525
	301	2 0.0	13.395794	17.103615	54.414386
	302	2 0.0	13.395794	19.564616	54.414386
	303	2 0.0	13.395794	22.025616	54.414386
	304	2 0.0	13.395794	24.486617	54.414386
	305	2 0.0	13.395794	26.947615	54.414386
	306	1 0.0	13.395794	14.929136	54.579795
	307	1 0.0	13.395794	27.891575	54.959376
	308	2 0.0	13.395794	15.873096	55.124846
	309	2 0.0	13.395794	18.334096	55.124846
	310	2 0.0	13.395794	20.795096	55.124846
	311	2 0.0	13.395794	23.256096	55.124846
	312	2 0.0	13.395794	25.717097	55.124846
	313	1 0.0	22.113874	24.275937	14.801365
	314	4 0.0	22.281875	23.431016	15.255425
	315	1 0.0	23.292874	21.670457	15.285405
	316	4 0.0	23.722875	21.403697	16.127915
	317	1 0.0	23.808873	24.323056	16.422934
	318	2 0.0	22.897874	23.690337	16.513535
	319	1 0.0	21.244874	21.322417	16.821854
	320	1 0.0	21.204873	24.977816	17.037576
	321	2 0.0	23.195874	22.285697	17.079526
	322	1 0.0	25.813874	26.937457	17.345786
	323	4 0.0	21.602874	19.157216	17.470305
	324	2 0.0	21.889874	24.248335	17.520455
	325	2 0.0	21.767875	21.906457	17.616765
	326	1 0.0	23.920875	22.361416	17.924975
	327	4 0.0	21.088874	23.121537	17.926915
	328	1 0.0	27.671874	22.694735	18.080245
	329	4 0.0	25.497874	27.299616	18.195664
	330	4 0.0	23.398873	25.966216	18.285775
	331	2 0.0	21.567874	19.639857	18.589274
	332	4 0.0	25.520873	24.769335	18.708794
	333	4 0.0	26.941875	22.729376	18.730904
	334	2 0.0	22.533874	24.897175	18.754075
	335	3 0.0	21.740874	21.039416	18.816636
	336	5 0.0	24.770873	26.204655	19.098574
	337	4 0.0	28.079873	25.048377	19.304995
	338	1 0.0	23.115874	24.156815	19.342395
	339	1 0.0	21.760875	25.326855	19.423915
	340	5 0.0	26.895873	24.195696	19.438704
	341	1 0.0	21.060874	17.935256	19.643235
	342	3 0.0	21.354875	18.924857	19.758056
	343	1 0.0	21.434875	22.680457	20.022435
	344	2 0.0	21.457873	21.587096	20.030194
	345	1 0.0	24.868875	22.588656	20.208785
	346	4 0.0	24.696874	26.541695	20.524485
	347	1 0.0	26.894874	21.367217	20.573134
	348	4 0.0	26.446874	23.810496	20.917415
	349	2 0.0	21.167874	19.412936	21.070084
	350	2 0.0	21.128875	20.877696	21.164235
	351	2 0.0	25.251874	22.976376	21.179416
	352	1 0.0	20.470874	23.476296	21.270015
	353	4 0.0	26.761874	21.061976	21.491555
	354	1 0.0	18.058873	22.669816	21.569856
	355	4 0.0	24.248874	23.745295	21.736985
	356	1 0.0	18.442874	24.340136	21.959525
	357	4 0.0	20.996875	18.624337	22.000975
	358	2 0.0	25.717874	21.813216	22.066365
	359	1 0.0	24.807874	21.172295	22.202346
	360	2 0.0	20.100875	23.028657	22.209664
	361	2 0.0	18.585874	23.304736	22.292895
	362	2 0.0	20.428874	21.541016	22.314895
	363	1 0.0	23.272874	25.963135	22.658906
	364	1 0.0	25.537873	25.028975	22.772275
	365	1 0.0	16.470874	20.545256	22.815884
	366	2 0.0	24.667865	24.366976	22.984456
	367	1 0.0	20.653874	23.549416	23.018645
	368	4 0.0	20.032874	20.885815	23.272824
	369	1 0.0	27.069875	22.947615	23.287076
	370	2 0.0	26.137874	22.355696	23.445556
	371	2 0.0	23.530873	25.252535	23.475255
	372	2 0.0	17.952874	23.124695	23.684714
	373	2 0.0	16.459874	23.095656	23.801144
	374	4 0.0	22.399875	24.475457	23.859654
	375	1 0.0	16.439874	25.256936	23.891684
	376	2 0.0	16.478874	20.651175	23.895566
	377	2 0.0	25.044873	23.279856	24.004735
	378	1 0.0	18.143874	22.124695	24.086745
	379	1 0.0	16.489874	18.519175	24.109126
	380	1 0.0	24.116874	22.685296	24.190425
	381	1 0.0	23.938865	25.822096	24.336606
	382	4 0.0	26.499873	21.334696	24.353564
	383	1 0.0	18.495873	23.776816	24.384255
	384	2 0.0	16.446874	24.326216	24.454245
	385	2 0.0	16.464874	21.898936	24.533376
	386	1 0.0	25.691875	20.823096	24.553716
	387	2 0.0	16.482874	19.469296	24.638715
	388	1 0.0	22.147874	24.739895	24.758355
	389	4 0.0	25.410874	23.882376	25.234025
	390	1 0.0	26.383874	23.847256	25.296365
	391	2 0.0	16.438874	24.381896	25.847066
	392	2 0.0	16.456874	21.952737	25.946364
	393	2 0.0	16.474874	19.502455	26.039355
	394	1 0.0	16.489874	17.351096	26.314034
	395	1 0.0	16.427874	25.355015	26.333985
	396	2 0.0	16.443874	23.202937	26.607455
	397	2 0.0	16.461874	20.753617	26.700656
	398	2 0.0	16.479874	18.324216	26.800904
	399	2 0.0	16.434874	23.237055	28.008305
	400	2 0.0	16.452874	20.806176	28.114365
	401	2 0.0	16.470874	18.378935	28.193555
	402	1 0.0	16.424874	24.186896	28.538834
	403	2 0.0	16.439874	22.055136	28.751454
	404	1 0.0	16.474874	17.459817	28.771355
	405	2 0.0	16.457874	19.610695	28.845885
	406	1 0.0	16.432874	22.120335	29.837516
	407	1 0.0	16.451874	19.626897	29.934155
	408	4 0.0	4.378204	10.532326	0.787035
	409	1 0.0	3.546694	10.277196	1.186685
	410	1 0.0	4.986304	10.603396	1.522825
	411	4 0.0	4.358334	14.566336	0.982835
	412	1 0.0	4.661134	13.676106	0.803855
	413	1 0.0	5.102694	15.123356	0.755065
	414	4 0.0	1.993184	3.501516	2.242135
	415	1 0.0	1.813474	2.604086	2.522415
	416	1 0.0	1.591194	4.048696	2.916835
	417	4 0.0	2.611854	5.997566	0.850375
	418	1 0.0	3.292864	6.261396	1.469115
	419	1 0.0	2.296664	5.157646	1.184175
	420	4 0.0	18.905404	5.214816	3.640565
	421	1 0.0	18.200624	5.602986	3.122075
	422	1 0.0	19.171193	5.909846	4.242655
	423	4 0.0	5.087924	1.684156	4.203975
	424	1 0.0	5.089764	2.201396	3.398565
	425	1 0.0	4.258354	1.207176	4.180965
	426	4 0.0	6.338204	11.323676	2.381325
	427	1 0.0	6.005144	11.950566	3.023425
	428	1 0.0	6.514874	11.849856	1.601485
	429	4 0.0	4.769454	3.395146	2.211015
	430	1 0.0	5.111134	4.239356	1.916405
	431	1 0.0	3.831034	3.543526	2.327555
	432	4 0.0	5.550114	13.291756	4.196245
	433	1 0.0	6.167514	13.966856	3.914685
	434	1 0.0	4.689424	13.700546	4.104995
	435	4 0.0	16.467874	14.755696	2.111705
	436	1 0.0	15.784224	15.425606	2.103375
	437	1 0.0	17.007304	14.953756	1.346195
	438	4 0.0	17.920295	4.583656	0.239875
	439	1 0.0	16.972783	4.617556	0.371425
	440	1 0.0	18.245284	5.397556	0.624815
	441	4 0.0	13.402294	11.503086	2.154485
	442	1 0.0	13.819174	11.289106	1.319825
	443	1 0.0	14.126274	11.760366	2.725345
	444	4 0.0	17.348504	9.901816	2.246105
	445	1 0.0	16.520364	9.971126	1.771125
	446	1 0.0	17.943555	10.487246	1.777695
	447	4 0.0	14.312704	6.688746	3.191595
	448	1 0.0	13.899824	7.514116	3.445595
	449	1 0.0	13.580304	6.103246	2.999235
	450	4 0.0	5.158844	6.249056	1.833365
	451	1 0.0	5.710304	6.358586	1.058695
	452	1 0.0	5.673194	6.622816	2.548885
	453	4 0.0	6.005994	12.899656	6.868165
	454	1 0.0	5.108854	13.123656	7.115505
	455	1 0.0	6.031284	13.023156	5.919305
	456	4 0.0	4.833114	9.770996	5.443895
	457	1 0.0	4.693894	10.643276	5.812635
	458	1 0.0	3.951254	9.428276	5.298695
	459	4 0.0	6.631154	15.713166	7.652415
	460	1 0.0	6.602694	16.117456	6.785255
	461	1 0.0	6.467654	14.784196	7.489575
	462	4 0.0	18.582635	16.495876	8.948835
	463	1 0.0	19.058604	16.974156	9.627735
	464	1 0.0	19.203355	16.427616	8.223385
	465	4 0.0	17.985965	13.687156	6.108835
	466	1 0.0	18.112264	13.448346	5.190555
	467	1 0.0	18.028094	12.855606	6.581045
	468	4 0.0	17.838365	5.740406	7.073805
	469	1 0.0	17.222783	6.248366	6.545355
	470	1 0.0	17.518004	4.840236	7.016405
	471	4 0.0	9.899794	4.579596	4.540025
	472	1 0.0	9.437734	4.787896	5.352015
	473	1 0.0	9.497604	3.765526	4.237095
	474	4 0.0	14.900244	5.800486	5.669695
	475	1 0.0	14.049604	5.501066	5.990595
	476	1 0.0	14.740424	6.044686	4.758075
	477	4 0.0	11.995214	7.300666	7.769575
	478	1 0.0	12.320554	6.467036	7.429795
	479	1 0.0	12.783244	7.823516	7.917405
	480	4 0.0	7.650404	2.257476	0.795455
	481	1 0.0	7.947634	3.163756	0.714655
	482	1 0.0	8.198954	1.769346	0.181415
	483	4 0.0	7.844154	7.734656	7.330645
	484	1 0.0	7.748514	6.794126	7.180685
	485	1 0.0	8.687354	7.956166	6.935455
	486	4 0.0	2.975214	4.146026	5.484025
	487	1 0.0	2.581544	4.993546	5.691305
	488	1 0.0	2.287054	3.508656	5.674885
	489	4 0.0	9.549714	4.229516	8.553695
	490	1 0.0	8.859544	4.036736	9.188305
	491	1 0.0	10.292944	4.512986	9.086125
	492	4 0.0	11.826014	8.069366	1.389085
	493	1 0.0	11.094124	8.578046	1.738095
	494	1 0.0	11.428444	7.252356	1.087965
	495	4 0.0	12.288604	3.522726	0.801385
	496	1 0.0	12.305874	3.973596	1.645565
	497	1 0.0	12.040164	2.623296	1.014725
	498	4 0.0	2.414834	11.957306	6.060015
	499	1 0.0	2.030314	11.316676	6.658315
	500	1 0.0	2.726054	12.660916	6.629495
	501	4 0.0	8.564544	8.804956	1.540875
	502	1 0.0	8.931564	8.330816	2.287015
	503	1 0.0	8.375054	9.679116	1.881715
	504	4 0.0	6.354484	7.845826	3.859305
	505	1 0.0	6.050194	8.725026	4.084335
	506	1 0.0	7.309134	7.905806	3.895045
	507	4 0.0	11.023344	11.119366	6.135525
	508	1 0.0	10.957074	10.198936	5.881285
	509	1 0.0	10.393854	11.216906	6.849985
	510	4 0.0	2.410854	8.686096	5.006435
	511	1 0.0	2.052354	9.351486	5.593775
	512	1 0.0	2.116314	7.854456	5.377695
	513	4 0.0	5.612174	9.144526	7.890395
	514	1 0.0	5.312184	9.290236	6.993175
	515	1 0.0	6.383294	8.585056	7.797735
	516	4 0.0	10.955014	13.941426	5.885905
	517	1 0.0	10.969464	13.009516	5.667795
	518	1 0.0	10.247524	14.027396	6.524885
	519	4 0.0	17.166135	10.582156	5.232765
	520	1 0.0	16.440954	11.175036	5.035705
	521	1 0.0	17.693685	10.574506	4.434095
	522	4 0.0	10.388404	15.583176	2.979955
	523	1 0.0	11.032624	15.789116	3.657295
	524	1 0.0	10.751344	14.822016	2.527035
	525	4 0.0	9.264234	14.435036	8.070115
	526	1 0.0	8.943924	13.715966	8.614685
	527	1 0.0	8.590064	15.110546	8.143715
	528	4 0.0	12.479594	4.667656	3.433795
	529	1 0.0	12.847674	3.847176	3.761745
	530	1 0.0	11.619414	4.727846	3.849355
	531	4 0.0	9.439794	7.321616	3.657585
	532	1 0.0	9.938314	7.796196	4.322775
	533	1 0.0	9.582084	6.397966	3.864595
	534	4 0.0	16.646474	3.538406	4.500425
	535	1 0.0	16.143834	4.278946	4.839805
	536	1 0.0	17.462144	3.926806	4.184105
	537	4 0.0	3.418814	17.230336	8.482265
	538	1 0.0	4.220094	17.551547	8.895805
	539	1 0.0	2.904004	16.869897	9.204255
	540	4 0.0	8.192394	11.124786	6.959415
	541	1 0.0	7.426964	11.693286	6.874885
	542	1 0.0	8.373984	10.832406	6.066245
	543	4 0.0	15.334724	12.855316	7.516915
	544	1 0.0	16.075674	13.192896	7.013665
	545	1 0.0	14.571994	13.024526	6.963895
	546	4 0.0	3.170904	7.860646	8.320875
	547	1 0.0	3.211444	7.562036	9.229395
	548	1 0.0	4.025454	8.261406	8.161625
	549	4 0.0	5.111484	6.439856	6.288325
	550	1 0.0	4.581134	5.948946	5.660655
	551	1 0.0	5.780294	6.868276	5.754115
	552	4 0.0	14.009294	10.906796	6.052445
	553	1 0.0	14.423394	11.061306	6.901485
	554	1 0.0	13.074394	11.032326	6.215015
	555	4 0.0	14.481514	8.246416	8.056355
	556	1 0.0	15.063584	7.491646	7.968405
	557	1 0.0	14.657684	8.777156	7.279505
	558	4 0.0	5.598714	3.406096	6.368055
	559	1 0.0	5.504404	2.788166	5.643135
	560	1 0.0	5.018454	4.132716	6.141045
	561	4 0.0	8.364864	1.963416	3.400785
	562	1 0.0	7.916594	1.985846	2.555345
	563	1 0.0	7.731384	1.565316	3.997815
	564	4 0.0	8.770814	10.858846	4.022035
	565	1 0.0	9.189624	11.702126	3.849655
	566	1 0.0	7.851684	10.996056	3.792715
	567	4 0.0	11.107204	8.590466	5.405815
	568	1 0.0	11.226824	7.994576	6.145305
	569	1 0.0	11.966604	8.627436	4.985945
	570	4 0.0	13.445994	9.144186	3.982065
	571	1 0.0	12.919514	9.668446	3.378585
	572	1 0.0	13.789134	9.776926	4.613045
	573	4 0.0	6.621554	17.164145	5.137805
	574	1 0.0	6.083664	17.888756	4.818675
	575	1 0.0	6.874954	16.687186	4.347545
	576	4 0.0	7.874084	5.132606	6.663395
	577	1 0.0	8.464054	4.824186	7.351185
	578	1 0.0	7.056104	4.660576	6.819385
	579	4 0.0	12.693424	4.749186	6.896705
	580	1 0.0	12.004974	4.087336	6.831705
	581	1 0.0	13.414024	4.303006	7.341545
	582	4 0.0	9.477784	18.399266	5.396475
	583	1 0.0	9.403654	19.302786	5.703705
	584	1 0.0	8.575664	18.080456	5.368675
	585	4 0.0	17.005744	16.095486	5.725725
	586	1 0.0	16.405944	16.154746	4.982115
	587	1 0.0	17.135135	15.155986	5.855415
	588	4 0.0	15.690914	12.820686	3.823345
	589	1 0.0	14.876894	13.250406	4.085925
	590	1 0.0	16.098334	13.432526	3.210245
	591	4 0.0	2.239564	9.491066	2.337215
	592	1 0.0	2.606874	9.403806	3.216825
	593	1 0.0	1.670644	8.727726	2.237905
	594	4 0.0	17.039954	7.959506	5.350265
	595	1 0.0	16.808564	7.730786	4.450065
	596	1 0.0	17.300405	8.879466	5.304755
	597	4 0.0	1.791164	6.401976	6.243065
	598	1 0.0	0.896774	6.368656	6.582435
	599	1 0.0	2.330924	6.600656	7.008185
	600	4 0.0	15.478754	3.185146	8.128235
	601	1 0.0	16.355774	3.193486	8.511635
	602	1 0.0	15.490844	2.448236	7.517475
	603	4 0.0	17.104054	7.122086	2.538995
	604	1 0.0	16.154324	7.088446	2.653495
	605	1 0.0	17.285354	8.032106	2.303965
	606	4 0.0	3.654774	14.004336	7.499235
	607	1 0.0	3.611734	13.633626	8.380675
	608	1 0.0	3.785874	14.942096	7.639415
	609	4 0.0	7.355374	15.560296	3.100205
	610	1 0.0	7.114514	15.827756	2.213255
	611	1 0.0	8.295644	15.730866	3.155295
	612	4 0.0	9.560814	2.023566	6.855855
	613	1 0.0	9.499704	2.615746	7.605395
	614	1 0.0	10.500854	1.916166	6.710885
	615	4 0.0	12.198274	1.680576	6.495085
	616	1 0.0	12.812314	1.998496	5.833195
	617	1 0.0	12.743234	1.195426	7.114675
	618	4 0.0	18.615794	17.579735	3.901265
	619	1 0.0	18.121623	17.976626	3.183985
	620	1 0.0	18.007125	16.954655	4.294995
	621	4 0.0	3.493574	16.950566	4.619015
	622	1 0.0	2.899604	16.819035	5.358015
	623	1 0.0	3.485964	16.114376	4.153225
	624	4 0.0	13.846274	2.450876	4.206185
	625	1 0.0	13.517614	1.636046	3.826355
	626	1 0.0	14.794504	2.407856	4.082755
	627	4 0.0	16.299734	18.222075	1.179945
	628	1 0.0	15.840034	18.973656	0.805745
	629	1 0.0	15.670984	17.502726	1.121425
	630	4 0.0	3.124804	14.316396	3.569815
	631	1 0.0	2.398204	13.696926	3.502415
	632	1 0.0	3.185714	14.710466	2.699625
	633	4 0.0	6.729314	16.530896	0.354755
	634	1 0.0	7.245814	15.919636	-0.170415
	635	1 0.0	7.379044	17.033776	0.845855
	636	4 0.0	9.468864	17.421746	1.181655
	637	1 0.0	9.756644	17.167176	0.304955
	638	1 0.0	9.981184	16.869486	1.772215
	639	4 0.0	9.536094	18.343356	8.548475
	640	1 0.0	10.462824	18.107787	8.592075
	641	1 0.0	9.521134	19.170556	8.067075
	642	4 0.0	16.103854	17.570346	8.372575
	643	1 0.0	16.896384	17.075266	8.165175
	644	1 0.0	16.397164	18.249356	8.980135
	645	4 0.0	23.152555	10.532326	0.787035
	646	1 0.0	22.321044	10.277196	1.186685
	647	1 0.0	23.760654	10.603396	1.522825
	648	4 0.0	23.132684	14.566336	0.982835
	649	1 0.0	23.435485	13.676106	0.803855
	650	1 0.0	23.877044	15.123356	0.755065
	651	4 0.0	20.767533	3.501516	2.242135
	652	1 0.0	20.587825	2.604086	2.522415
	653	1 0.0	20.365544	4.048696	2.916835
	654	4 0.0	21.386205	5.997566	0.850375
	655	1 0.0	22.067214	6.261396	1.469115
	656	1 0.0	21.071013	5.157646	1.184175
	657	4 0.0	37.679755	5.214816	3.640565
	658	1 0.0	36.974975	5.602986	3.122075
	659	1 0.0	37.945544	5.909846	4.242655
	660	4 0.0	23.862273	1.684156	4.203975
	661	1 0.0	23.864114	2.201396	3.398565
	662	1 0.0	23.032704	1.207176	4.180965
	663	4 0.0	25.112554	11.323676	2.381325
	664	1 0.0	24.779494	11.950566	3.023425
	665	1 0.0	25.289224	11.849856	1.601485
	666	4 0.0	23.543803	3.395146	2.211015
	667	1 0.0	23.885484	4.239356	1.916405
	668	1 0.0	22.605384	3.543526	2.327555
	669	4 0.0	24.324464	13.291756	4.196245
	670	1 0.0	24.941863	13.966856	3.914685
	671	1 0.0	23.463775	13.700546	4.104995
	672	4 0.0	35.242225	14.755696	2.111705
	673	1 0.0	34.558574	15.425606	2.103375
	674	1 0.0	35.781653	14.953756	1.346195
	675	4 0.0	36.694644	4.583656	0.239875
	676	1 0.0	35.747134	4.617556	0.371425
	677	1 0.0	37.019633	5.397556	0.624815
	678	4 0.0	32.778106	16.600106	0.826225
	679	1 0.0	32.790813	16.196336	-0.041555
	680	1 0.0	32.225623	17.374837	0.722365
	681	4 0.0	32.176644	11.503086	2.154485
	682	1 0.0	32.593524	11.289106	1.319825
	683	1 0.0	32.900622	11.760366	2.725345
	684	4 0.0	36.122855	9.901816	2.246105
	685	1 0.0	35.294715	9.971126	1.771125
	686	1 0.0	36.717902	10.487246	1.777695
	687	4 0.0	33.087054	6.688746	3.191595
	688	1 0.0	32.674174	7.514116	3.445595
	689	1 0.0	32.354653	6.103246	2.999235
	690	4 0.0	23.933194	6.249056	1.833365
	691	1 0.0	24.484654	6.358586	1.058695
	692	1 0.0	24.447543	6.622816	2.548885
	693	4 0.0	33.777064	16.734676	3.879695
	694	1 0.0	33.300124	17.541896	3.686955
	695	1 0.0	33.093246	16.082506	4.032315
	696	4 0.0	24.780343	12.899656	6.868165
	697	1 0.0	23.883204	13.123656	7.115505
	698	1 0.0	24.805635	13.023156	5.919305
	699	4 0.0	23.607465	9.770996	5.443895
	700	1 0.0	23.468244	10.643276	5.812635
	701	1 0.0	22.725604	9.428276	5.298695
	702	4 0.0	25.405503	15.713166	7.652415
	703	1 0.0	25.377044	16.117456	6.785255
	704	1 0.0	25.242003	14.784196	7.489575
	705	4 0.0	37.356982	16.495876	8.948835
	706	1 0.0	37.832953	16.974156	9.627735
	707	1 0.0	37.977702	16.427616	8.223385
	708	4 0.0	19.559335	11.540746	1.360995
	709	1 0.0	19.637374	11.675626	0.416565
	710	1 0.0	20.173505	10.832336	1.553805
	711	4 0.0	36.760314	13.687156	6.108835
	712	1 0.0	36.886615	13.448346	5.190555
	713	1 0.0	36.802444	12.855606	6.581045
	714	4 0.0	30.621984	17.389956	4.678315
	715	1 0.0	31.136455	17.300755	5.480555
	716	1 0.0	29.778893	17.735926	4.971105
	717	4 0.0	36.612716	5.740406	7.073805
	718	1 0.0	35.997134	6.248366	6.545355
	719	1 0.0	36.292354	4.840236	7.016405
	720	4 0.0	19.615285	12.582166	3.900435
	721	1 0.0	19.778394	12.112696	3.082375
	722	1 0.0	20.080533	12.074516	4.565325
	723	4 0.0	28.674144	4.579596	4.540025
	724	1 0.0	28.212085	4.787896	5.352015
	725	1 0.0	28.271955	3.765526	4.237095
	726	4 0.0	33.674594	5.800486	5.669695
	727	1 0.0	32.823955	5.501066	5.990595
	728	1 0.0	33.514773	6.044686	4.758075
	729	4 0.0	30.769565	7.300666	7.769575
	730	1 0.0	31.094905	6.467036	7.429795
	731	1 0.0	31.557593	7.823516	7.917405
	732	4 0.0	26.424754	2.257476	0.795455
	733	1 0.0	26.721984	3.163756	0.714655
	734	1 0.0	26.973304	1.769346	0.181415
	735	4 0.0	26.618505	7.734656	7.330645
	736	1 0.0	26.522864	6.794126	7.180685
	737	1 0.0	27.461703	7.956166	6.935455
	738	4 0.0	21.749564	4.146026	5.484025
	739	1 0.0	21.355893	4.993546	5.691305
	740	1 0.0	21.061404	3.508656	5.674885
	741	4 0.0	28.324063	4.229516	8.553695
	742	1 0.0	27.633895	4.036736	9.188305
	743	1 0.0	29.067294	4.512986	9.086125
	744	4 0.0	30.600364	8.069366	1.389085