# LAMMPS data file created from VNL: Compatible with atom_style atomic.
   8661  atoms
      5  atom types
 0.000000  42.948970   xlo xhi
 0.000000  41.481979   ylo yhi
 0.000000  60.998489   zlo zhi

Masses

1   1.007940
2   12.010700
3   14.006700
4   15.999400
5   30.973800

Atoms

      1    2  0.0  13.395794  15.205974  2.668895
      2    2  0.0  13.395794  17.666974  2.668895
      3    2  0.0  13.395794  20.127974  2.668895
      4    2  0.0  13.395794  22.588974  2.668895
      5    2  0.0  13.395794  25.049975  2.668895
      6    1  0.0  13.395794  27.224453  2.834325
      7    1  0.0  13.395794  14.262014  3.213895
      8    2  0.0  13.395794  16.436493  3.379325
      9    2  0.0  13.395794  18.897494  3.379325
     10    2  0.0  13.395794  21.358494  3.379325
     11    2  0.0  13.395794  23.819495  3.379325
     12    2  0.0  13.395794  26.280493  3.379325
     13    2  0.0  13.395794  23.819495  4.800185
     14    2  0.0  13.395794  26.280493  4.800185
     15    2  0.0  13.395794  16.436493  4.800225
     16    2  0.0  13.395794  18.897494  4.800225
     17    2  0.0  13.395794  21.358494  4.800225
     18    1  0.0  13.395794  14.262014  4.965655
     19    1  0.0  13.395794  27.224453  5.345185
     20    2  0.0  13.395794  25.049975  5.510615
     21    2  0.0  13.395794  15.205974  5.510655
     22    2  0.0  13.395794  17.666974  5.510655
     23    2  0.0  13.395794  20.127974  5.510655
     24    2  0.0  13.395794  22.588974  5.510655
     25    2  0.0  13.395794  25.049975  6.931475
     26    2  0.0  13.395794  15.205974  6.931515
     27    2  0.0  13.395794  17.666974  6.931515
     28    2  0.0  13.395794  20.127974  6.931515
     29    2  0.0  13.395794  22.588974  6.931515
     30    1  0.0  13.395794  27.224453  7.096905
     31    1  0.0  13.395794  14.262014  7.476515
     32    2  0.0  13.395794  23.819495  7.641905
     33    2  0.0  13.395794  26.280493  7.641905
     34    2  0.0  13.395794  16.436493  7.641965
     35    2  0.0  13.395794  18.897494  7.641965
     36    2  0.0  13.395794  21.358494  7.641965
     37    2  0.0  13.395794  23.819495  9.062765
     38    2  0.0  13.395794  26.280493  9.062765
     39    2  0.0  13.395794  16.436493  9.062825
     40    2  0.0  13.395794  18.897494  9.062825
     41    2  0.0  13.395794  21.358494  9.062825
     42    1  0.0  13.395794  14.262014  9.228235
     43    1  0.0  13.395794  27.224453  9.607755
     44    2  0.0  13.395794  25.049975  9.773165
     45    2  0.0  13.395794  15.205974  9.773225
     46    2  0.0  13.395794  17.666974  9.773225
     47    2  0.0  13.395794  20.127974  9.773225
     48    2  0.0  13.395794  22.588974  9.773225
     49    2  0.0  13.395794  25.049975  11.194025
     50    2  0.0  13.395794  15.205974  11.194085
     51    2  0.0  13.395794  17.666974  11.194085
     52    2  0.0  13.395794  20.127974  11.194085
     53    2  0.0  13.395794  22.588974  11.194085
     54    1  0.0  13.395794  27.224453  11.359495
     55    1  0.0  13.395794  14.262014  11.739075
     56    2  0.0  13.395794  23.819495  11.904485
     57    2  0.0  13.395794  26.280493  11.904485
     58    2  0.0  13.395794  16.436493  11.904545
     59    2  0.0  13.395794  18.897494  11.904545
     60    2  0.0  13.395794  21.358494  11.904545
     61    2  0.0  13.395794  23.819495  13.325345
     62    2  0.0  13.395794  26.280493  13.325345
     63    2  0.0  13.395794  16.436493  13.325405
     64    2  0.0  13.395794  18.897494  13.325405
     65    2  0.0  13.395794  21.358494  13.325405
     66    1  0.0  13.395794  14.262014  13.490815
     67    1  0.0  13.395794  27.224453  13.870335
     68    2  0.0  13.395794  25.049975  14.035745
     69    2  0.0  13.395794  15.205974  14.035805
     70    2  0.0  13.395794  17.666974  14.035805
     71    2  0.0  13.395794  20.127974  14.035805
     72    2  0.0  13.395794  22.588974  14.035805
     73    2  0.0  13.395794  25.049975  15.456605
     74    2  0.0  13.395794  15.205974  15.456665
     75    2  0.0  13.395794  17.666974  15.456665
     76    2  0.0  13.395794  20.127974  15.456665
     77    2  0.0  13.395794  22.588974  15.456665
     78    1  0.0  13.395794  27.224453  15.622075
     79    1  0.0  13.395794  14.262014  16.001655
     80    2  0.0  13.395794  23.819495  16.167065
     81    2  0.0  13.395794  26.280493  16.167065
     82    2  0.0  13.395794  16.436493  16.167125
     83    2  0.0  13.395794  18.897494  16.167125
     84    2  0.0  13.395794  21.358494  16.167125
     85    2  0.0  13.395794  23.819495  17.587925
     86    2  0.0  13.395794  26.280493  17.587925
     87    2  0.0  13.395794  16.436493  17.587985
     88    2  0.0  13.395794  18.897494  17.587985
     89    2  0.0  13.395794  21.358494  17.587985
     90    1  0.0  13.395794  14.262014  17.753395
     91    1  0.0  13.395794  27.224453  18.132915
     92    2  0.0  13.395794  25.049975  18.298326
     93    2  0.0  13.395794  15.205974  18.298385
     94    2  0.0  13.395794  17.666974  18.298385
     95    2  0.0  13.395794  20.127974  18.298385
     96    2  0.0  13.395794  22.588974  18.298385
     97    2  0.0  13.395794  25.049975  19.719184
     98    2  0.0  13.395794  15.205974  19.719245
     99    2  0.0  13.395794  17.666974  19.719245
    100    2  0.0  13.395794  20.127974  19.719245
    101    2  0.0  13.395794  22.588974  19.719245
    102    1  0.0  13.395794  27.224453  19.884654
    103    1  0.0  13.395794  14.262014  20.264236
    104    2  0.0  13.395794  23.819495  20.429645
    105    2  0.0  13.395794  26.280493  20.429645
    106    2  0.0  13.395794  16.436493  20.429704
    107    2  0.0  13.395794  18.897494  20.429704
    108    2  0.0  13.395794  21.358494  20.429704
    109    2  0.0  13.395794  16.436493  21.850564
    110    2  0.0  13.395794  18.897494  21.850564
    111    2  0.0  13.395794  21.358494  21.850564
    112    2  0.0  13.395794  23.819495  21.850564
    113    2  0.0  13.395794  26.280493  21.850564
    114    1  0.0  13.395794  14.262014  22.015975
    115    1  0.0  13.395794  27.224453  22.395555
    116    2  0.0  13.395794  15.205974  22.560966
    117    2  0.0  13.395794  17.666974  22.560966
    118    2  0.0  13.395794  20.127974  22.560966
    119    2  0.0  13.395794  22.588974  22.560966
    120    2  0.0  13.395794  25.049975  22.561025
    121    2  0.0  13.395794  15.205974  23.981824
    122    2  0.0  13.395794  17.666974  23.981824
    123    2  0.0  13.395794  20.127974  23.981824
    124    2  0.0  13.395794  22.588974  23.981824
    125    2  0.0  13.395794  25.049975  23.981885
    126    1  0.0  13.395794  27.224453  24.147294
    127    1  0.0  13.395794  14.262014  24.526815
    128    2  0.0  13.395794  16.436493  24.692285
    129    2  0.0  13.395794  18.897494  24.692285
    130    2  0.0  13.395794  21.358494  24.692285
    131    2  0.0  13.395794  23.819495  24.692285
    132    2  0.0  13.395794  26.280493  24.692285
    133    2  0.0  13.395794  16.436493  26.113145
    134    2  0.0  13.395794  18.897494  26.113145
    135    2  0.0  13.395794  21.358494  26.113145
    136    2  0.0  13.395794  23.819495  26.113145
    137    2  0.0  13.395794  26.280493  26.113145
    138    1  0.0  13.395794  14.262014  26.278554
    139    1  0.0  13.395794  27.224453  26.658136
    140    2  0.0  13.395794  15.205974  26.823545
    141    2  0.0  13.395794  17.666974  26.823545
    142    2  0.0  13.395794  20.127974  26.823545
    143    2  0.0  13.395794  22.588974  26.823545
    144    2  0.0  13.395794  25.049975  26.823606
    145    2  0.0  13.395794  15.205974  28.244405
    146    2  0.0  13.395794  17.666974  28.244405
    147    2  0.0  13.395794  20.127974  28.244405
    148    2  0.0  13.395794  22.588974  28.244405
    149    2  0.0  13.395794  25.049975  28.244464
    150    1  0.0  13.395794  27.224453  28.409866
    151    1  0.0  13.395794  14.262014  28.789396
    152    2  0.0  13.395794  16.436493  28.954866
    153    2  0.0  13.395794  18.897494  28.954866
    154    2  0.0  13.395794  21.358494  28.954866
    155    2  0.0  13.395794  23.819495  28.954866
    156    2  0.0  13.395794  26.280493  28.954866
    157    2  0.0  13.395794  16.436493  30.375665
    158    2  0.0  13.395794  18.897494  30.375665
    159    2  0.0  13.395794  21.358494  30.375665
    160    2  0.0  13.395794  23.819495  30.375724
    161    2  0.0  13.395794  26.280493  30.375724
    162    1  0.0  13.395794  14.262014  30.541135
    163    1  0.0  13.395794  27.224453  30.920715
    164    2  0.0  13.395794  15.205974  31.086126
    165    2  0.0  13.395794  17.666974  31.086126
    166    2  0.0  13.395794  20.127974  31.086126
    167    2  0.0  13.395794  22.588974  31.086126
    168    2  0.0  13.395794  25.049975  31.086175
    169    2  0.0  13.395794  15.205974  32.506984
    170    2  0.0  13.395794  17.666974  32.506984
    171    2  0.0  13.395794  20.127974  32.506984
    172    2  0.0  13.395794  22.588974  32.506984
    173    2  0.0  13.395794  25.049975  32.507045
    174    1  0.0  13.395794  27.224453  32.672454
    175    1  0.0  13.395794  14.262014  33.051975
    176    2  0.0  13.395794  16.436493  33.217386
    177    2  0.0  13.395794  18.897494  33.217386
    178    2  0.0  13.395794  21.358494  33.217386
    179    2  0.0  13.395794  23.819495  33.217445
    180    2  0.0  13.395794  26.280493  33.217445
    181    2  0.0  13.395794  16.436493  34.638305
    182    2  0.0  13.395794  18.897494  34.638305
    183    2  0.0  13.395794  21.358494  34.638305
    184    2  0.0  13.395794  23.819495  34.638305
    185    2  0.0  13.395794  26.280493  34.638305
    186    1  0.0  13.395794  14.262014  34.803764
    187    1  0.0  13.395794  27.224453  35.183296
    188    2  0.0  13.395794  15.205974  35.348766
    189    2  0.0  13.395794  17.666974  35.348766
    190    2  0.0  13.395794  20.127974  35.348766
    191    2  0.0  13.395794  22.588974  35.348766
    192    2  0.0  13.395794  25.049975  35.348766
    193    2  0.0  13.395794  25.049975  36.769626
    194    2  0.0  13.395794  15.205974  36.769626
    195    2  0.0  13.395794  17.666974  36.769626
    196    2  0.0  13.395794  20.127974  36.769626
    197    2  0.0  13.395794  22.588974  36.769626
    198    1  0.0  13.395794  27.224453  36.935035
    199    1  0.0  13.395794  14.262014  37.314617
    200    2  0.0  13.395794  16.436493  37.480026
    201    2  0.0  13.395794  18.897494  37.480026
    202    2  0.0  13.395794  21.358494  37.480026
    203    2  0.0  13.395794  23.819495  37.480026
    204    2  0.0  13.395794  26.280493  37.480026
    205    2  0.0  13.395794  16.436493  38.900886
    206    2  0.0  13.395794  18.897494  38.900886
    207    2  0.0  13.395794  21.358494  38.900886
    208    2  0.0  13.395794  23.819495  38.900886
    209    2  0.0  13.395794  26.280493  38.900886
    210    1  0.0  13.395794  14.262014  39.066345
    211    1  0.0  13.395794  27.224453  39.445876
    212    2  0.0  13.395794  15.205974  39.611347
    213    2  0.0  13.395794  17.666974  39.611347
    214    2  0.0  13.395794  20.127974  39.611347
    215    2  0.0  13.395794  22.588974  39.611347
    216    2  0.0  13.395794  25.049975  39.611347
    217    2  0.0  13.395794  15.205974  41.032203
    218    2  0.0  13.395794  17.666974  41.032203
    219    2  0.0  13.395794  20.127974  41.032203
    220    2  0.0  13.395794  22.588974  41.032203
    221    2  0.0  13.395794  25.049975  41.032203
    222    1  0.0  13.395794  27.224453  41.197616
    223    1  0.0  13.395794  14.262014  41.577194
    224    2  0.0  13.395794  16.436493  41.742607
    225    2  0.0  13.395794  18.897494  41.742607
    226    2  0.0  13.395794  21.358494  41.742607
    227    2  0.0  13.395794  23.819495  41.742607
    228    2  0.0  13.395794  26.280493  41.742607
    229    2  0.0  13.395794  23.819495  43.163467
    230    2  0.0  13.395794  26.280493  43.163467
    231    2  0.0  13.395794  16.436493  43.163467
    232    2  0.0  13.395794  18.897494  43.163467
    233    2  0.0  13.395794  21.358494  43.163467
    234    1  0.0  13.395794  14.262014  43.328876
    235    1  0.0  13.395794  27.224453  43.708454
    236    2  0.0  13.395794  15.205974  43.873924
    237    2  0.0  13.395794  17.666974  43.873924
    238    2  0.0  13.395794  20.127974  43.873924
    239    2  0.0  13.395794  22.588974  43.873924
    240    2  0.0  13.395794  25.049975  43.873924
    241    2  0.0  13.395794  15.205974  45.294784
    242    2  0.0  13.395794  17.666974  45.294784
    243    2  0.0  13.395794  20.127974  45.294784
    244    2  0.0  13.395794  22.588974  45.294784
    245    2  0.0  13.395794  25.049975  45.294784
    246    1  0.0  13.395794  27.224453  45.460185
    247    1  0.0  13.395794  14.262014  45.839775
    248    2  0.0  13.395794  16.436493  46.005184
    249    2  0.0  13.395794  18.897494  46.005184
    250    2  0.0  13.395794  21.358494  46.005184
    251    2  0.0  13.395794  23.819495  46.005184
    252    2  0.0  13.395794  26.280493  46.005184
    253    2  0.0  13.395794  16.436493  47.426044
    254    2  0.0  13.395794  18.897494  47.426044
    255    2  0.0  13.395794  21.358494  47.426044
    256    2  0.0  13.395794  23.819495  47.426044
    257    2  0.0  13.395794  26.280493  47.426044
    258    1  0.0  13.395794  14.262014  47.591457
    259    1  0.0  13.395794  27.224453  47.971034
    260    2  0.0  13.395794  15.205974  48.136505
    261    2  0.0  13.395794  17.666974  48.136505
    262    2  0.0  13.395794  20.127974  48.136505
    263    2  0.0  13.395794  22.588974  48.136505
    264    2  0.0  13.395794  25.049975  48.136505
    265    2  0.0  13.395794  15.205974  49.557365
    266    2  0.0  13.395794  17.666974  49.557365
    267    2  0.0  13.395794  20.127974  49.557365
    268    2  0.0  13.395794  22.588974  49.557365
    269    2  0.0  13.395794  25.049975  49.557365
    270    1  0.0  13.395794  27.224453  49.722774
    271    1  0.0  13.395794  14.262014  50.102355
    272    2  0.0  13.395794  23.819495  50.267764
    273    2  0.0  13.395794  26.280493  50.267764
    274    2  0.0  13.395794  16.436493  50.267764
    275    2  0.0  13.395794  18.897494  50.267764
    276    2  0.0  13.395794  21.358494  50.267764
    277    2  0.0  13.395794  16.436493  51.688625
    278    2  0.0  13.395794  18.897494  51.688625
    279    2  0.0  13.395794  21.358494  51.688625
    280    2  0.0  13.395794  23.819495  51.688625
    281    2  0.0  13.395794  26.280493  51.688625
    282    1  0.0  13.395794  14.262014  51.854034
    283    1  0.0  13.395794  27.224453  52.233615
    284    2  0.0  13.395794  15.205974  52.399085
    285    2  0.0  13.395794  17.666974  52.399085
    286    2  0.0  13.395794  20.127974  52.399085
    287    2  0.0  13.395794  22.588974  52.399085
    288    2  0.0  13.395794  25.049975  52.399085
    289    2  0.0  13.395794  15.205974  53.819946
    290    2  0.0  13.395794  17.666974  53.819946
    291    2  0.0  13.395794  20.127974  53.819946
    292    2  0.0  13.395794  22.588974  53.819946
    293    2  0.0  13.395794  25.049975  53.819946
    294    1  0.0  13.395794  27.224453  53.985355
    295    1  0.0  13.395794  14.262014  54.364936
    296    2  0.0  13.395794  16.436493  54.530345
    297    2  0.0  13.395794  18.897494  54.530345
    298    2  0.0  13.395794  21.358494  54.530345
    299    2  0.0  13.395794  23.819495  54.530345
    300    2  0.0  13.395794  26.280493  54.530345
    301    2  0.0  13.395794  16.436493  55.951206
    302    2  0.0  13.395794  18.897494  55.951206
    303    2  0.0  13.395794  21.358494  55.951206
    304    2  0.0  13.395794  23.819495  55.951206
    305    2  0.0  13.395794  26.280493  55.951206
    306    1  0.0  13.395794  14.262014  56.116615
    307    1  0.0  13.395794  27.224453  56.496196
    308    2  0.0  13.395794  15.205974  56.661666
    309    2  0.0  13.395794  17.666974  56.661666
    310    2  0.0  13.395794  20.127974  56.661666
    311    2  0.0  13.395794  22.588974  56.661666
    312    2  0.0  13.395794  25.049975  56.661666
    313    1  0.0  22.113874  23.608815  3.550435
    314    4  0.0  22.281875  22.763894  4.004515
    315    1  0.0  23.292874  21.003335  4.034485
    316    4  0.0  23.722875  20.736575  4.876985
    317    1  0.0  23.808873  23.655934  5.171995
    318    2  0.0  22.897874  23.023215  5.262625
    319    1  0.0  21.244874  20.655295  5.570925
    320    1  0.0  21.204873  24.310694  5.786655
    321    2  0.0  23.195874  21.618575  5.828615
    322    1  0.0  25.813874  26.270335  6.094895
    323    4  0.0  21.602874  18.490094  6.219385
    324    2  0.0  21.889874  23.581213  6.269525
    325    2  0.0  21.767875  21.239335  6.365825
    326    1  0.0  23.920875  21.694294  6.674045
    327    4  0.0  21.088874  22.454415  6.675995
    328    1  0.0  27.671874  22.027613  6.829305
    329    4  0.0  25.497874  26.632494  6.944745
    330    4  0.0  23.398873  25.299094  7.034845
    331    2  0.0  21.567874  18.972735  7.338375
    332    4  0.0  25.520873  24.102213  7.457855
    333    4  0.0  26.941875  22.062254  7.480005
    334    2  0.0  22.533874  24.230053  7.503145
    335    3  0.0  21.740874  20.372294  7.565715
    336    5  0.0  24.770873  25.537533  7.847655
    337    4  0.0  28.079873  24.381255  8.054075
    338    1  0.0  23.115874  23.489693  8.091475
    339    1  0.0  21.760875  24.659733  8.172985
    340    5  0.0  26.895873  23.528574  8.187785
    341    1  0.0  21.060874  17.268134  8.392315
    342    3  0.0  21.354875  18.257735  8.507135
    343    1  0.0  21.434875  22.013335  8.771515
    344    2  0.0  21.457873  20.919974  8.779265
    345    1  0.0  24.868875  21.921534  8.957865
    346    4  0.0  24.696874  25.874573  9.273555
    347    1  0.0  26.894874  20.700095  9.322215
    348    4  0.0  26.446874  23.143374  9.666495
    349    2  0.0  21.167874  18.745814  9.819165
    350    2  0.0  21.128875  20.210574  9.913305
    351    2  0.0  25.251874  22.309254  9.928495
    352    1  0.0  20.470874  22.809174  10.019145
    353    4  0.0  26.761874  20.394854  10.240635
    354    1  0.0  18.058873  22.002694  10.318935
    355    4  0.0  24.248874  23.078173  10.486065
    356    1  0.0  18.442874  23.673014  10.708605
    357    4  0.0  20.996875  17.957215  10.750055
    358    2  0.0  25.717874  21.146094  10.815445
    359    1  0.0  24.807874  20.505173  10.951425
    360    2  0.0  20.100875  22.361535  10.958745
    361    2  0.0  18.585874  22.637614  11.042025
    362    2  0.0  20.428874  20.873894  11.063975
    363    1  0.0  23.272874  25.296013  11.407985
    364    1  0.0  25.537873  24.361853  11.521355
    365    1  0.0  16.470874  19.878134  11.564965
    366    2  0.0  24.667874  23.699854  11.733535
    367    1  0.0  20.653874  22.882294  11.767785
    368    4  0.0  20.032874  20.218693  12.021905
    369    1  0.0  27.069875  22.280493  12.036145
    370    2  0.0  26.137874  21.688574  12.194635
    371    2  0.0  23.530873  24.585413  12.224335
    372    2  0.0  17.952874  22.457573  12.433795
    373    2  0.0  16.459874  22.428534  12.550225
    374    4  0.0  22.399875  23.808335  12.608795
    375    1  0.0  16.439874  24.589814  12.640765
    376    2  0.0  16.478874  19.984053  12.644645
    377    2  0.0  25.044873  22.612734  12.753815
    378    1  0.0  18.143874  21.457573  12.835825
    379    1  0.0  16.489874  17.852053  12.858205
    380    1  0.0  24.116874  22.018174  12.939505
    381    1  0.0  23.938874  25.154974  13.085735
    382    4  0.0  26.499873  20.667574  13.102635
    383    1  0.0  18.495873  23.109694  13.133335
    384    2  0.0  16.446874  23.659094  13.203325
    385    2  0.0  16.464874  21.231814  13.282455
    386    1  0.0  25.691875  20.155974  13.302795
    387    2  0.0  16.482874  18.802174  13.387795
    388    1  0.0  22.147874  24.072773  13.507435
    389    4  0.0  25.410874  23.215254  13.983105
    390    1  0.0  26.383874  23.180134  14.045445
    391    2  0.0  16.438874  23.714774  14.596145
    392    2  0.0  16.456874  21.285615  14.695445
    393    2  0.0  16.474874  18.835333  14.788435
    394    1  0.0  16.489874  16.683974  15.063115
    395    1  0.0  16.427874  24.687893  15.083065
    396    2  0.0  16.443874  22.535815  15.356535
    397    2  0.0  16.461874  20.086495  15.449735
    398    2  0.0  16.479874  17.657094  15.550035
    399    2  0.0  16.434874  22.569933  16.757385
    400    2  0.0  16.452874  20.139054  16.863445
    401    2  0.0  16.470874  17.711813  16.942635
    402    1  0.0  16.424874  23.519774  17.287975
    403    2  0.0  16.439874  21.388014  17.500545
    404    1  0.0  16.474874  16.792695  17.520435
    405    2  0.0  16.457874  18.943573  17.594965
    406    1  0.0  16.432874  21.453213  18.586595
    407    1  0.0  16.451874  18.959775  18.683235
    408    1  0.0  22.113874  23.608815  20.600765
    409    4  0.0  22.281875  22.763894  21.054824
    410    1  0.0  23.292874  21.003335  21.084806
    411    4  0.0  23.722875  20.736575  21.927314
    412    1  0.0  23.808873  23.655934  22.222335
    413    2  0.0  22.897874  23.023215  22.312934
    414    1  0.0  21.244874  20.655295  22.621255
    415    1  0.0  21.204873  24.310694  22.836984
    416    2  0.0  23.195874  21.618575  22.878925
    417    1  0.0  25.813874  26.270335  23.145185
    418    4  0.0  21.602874  18.490094  23.269704
    419    2  0.0  21.889874  23.581213  23.319854
    420    2  0.0  21.767875  21.239335  23.416166
    421    1  0.0  23.920875  21.694294  23.724374
    422    4  0.0  21.088874  22.454415  23.726316
    423    1  0.0  27.671874  22.027613  23.879646
    424    4  0.0  25.497865  26.632494  23.995065
    425    4  0.0  23.398873  25.299094  24.085176
    426    2  0.0  21.567874  18.972735  24.388675
    427    4  0.0  25.520873  24.102213  24.508146
    428    4  0.0  26.941875  22.062254  24.530305
    429    2  0.0  22.533874  24.230053  24.553415
    430    3  0.0  21.740874  20.372294  24.616035
    431    5  0.0  24.770873  25.537533  24.897975
    432    4  0.0  28.079873  24.381255  25.104394
    433    1  0.0  23.115874  23.489693  25.141796
    434    1  0.0  21.760875  24.659733  25.223316
    435    5  0.0  26.895873  23.528574  25.238105
    436    1  0.0  21.060874  17.268134  25.442636
    437    3  0.0  21.354875  18.257735  25.557454
    438    1  0.0  21.434875  22.013335  25.821836
    439    2  0.0  21.457873  20.919974  25.829595
    440    1  0.0  24.868875  21.921534  26.008186
    441    4  0.0  24.696874  25.874573  26.323884
    442    1  0.0  26.894874  20.700095  26.372535
    443    4  0.0  26.446874  23.143374  26.716815
    444    2  0.0  21.167874  18.745814  26.869485
    445    2  0.0  21.128875  20.210574  26.963636
    446    2  0.0  25.251874  22.309254  26.978815
    447    1  0.0  20.470874  22.809174  27.069415
    448    4  0.0  26.761874  20.394854  27.290956
    449    1  0.0  18.058873  22.002694  27.369254
    450    4  0.0  24.248874  23.078173  27.536386
    451    1  0.0  18.442874  23.673014  27.758926
    452    4  0.0  20.996875  17.957215  27.800374
    453    2  0.0  25.717874  21.146094  27.865766
    454    1  0.0  24.807874  20.505173  28.001745
    455    2  0.0  20.100875  22.361535  28.009065
    456    2  0.0  18.585874  22.637614  28.092294
    457    2  0.0  20.428874  20.873894  28.114295
    458    1  0.0  23.272874  25.296013  28.458305
    459    1  0.0  25.537873  24.361853  28.571676
    460    1  0.0  16.470874  19.878134  28.615285
    461    2  0.0  24.667865  23.699854  28.783855
    462    1  0.0  20.653874  22.882294  28.818044
    463    4  0.0  20.032874  20.218693  29.072225
    464    1  0.0  27.069875  22.280493  29.086475
    465    2  0.0  26.137874  21.688574  29.244954
    466    2  0.0  23.530873  24.585413  29.274656
    467    2  0.0  17.952874  22.457573  29.484115
    468    2  0.0  16.459874  22.428534  29.600545
    469    4  0.0  22.399875  23.808335  29.659055
    470    1  0.0  16.439874  24.589814  29.691085
    471    2  0.0  16.478874  19.984053  29.694965
    472    2  0.0  25.044873  22.612734  29.804136
    473    1  0.0  18.143874  21.457573  29.886144
    474    1  0.0  16.489874  17.852053  29.908534
    475    1  0.0  24.116874  22.018174  29.989826
    476    1  0.0  23.938865  25.154974  30.136005
    477    4  0.0  26.499873  20.667574  30.152955
    478    1  0.0  18.495873  23.109694  30.183654
    479    2  0.0  16.446874  23.659094  30.253644
    480    2  0.0  16.464874  21.231814  30.332775
    481    1  0.0  25.691875  20.155974  30.353115
    482    2  0.0  16.482874  18.802174  30.438115
    483    1  0.0  22.147874  24.072773  30.557756
    484    4  0.0  25.410874  23.215254  31.033426
    485    1  0.0  26.383874  23.180134  31.095765
    486    2  0.0  16.438874  23.714774  31.646465
    487    2  0.0  16.456874  21.285615  31.745775
    488    2  0.0  16.474874  18.835333  31.838754
    489    1  0.0  16.489874  16.683974  32.113435
    490    1  0.0  16.427874  24.687893  32.133384
    491    2  0.0  16.443874  22.535815  32.406854
    492    2  0.0  16.461874  20.086495  32.500055
    493    2  0.0  16.479874  17.657094  32.600305
    494    2  0.0  16.434874  22.569933  33.807716
    495    2  0.0  16.452874  20.139054  33.913776
    496    2  0.0  16.470874  17.711813  33.992904
    497    1  0.0  16.424874  23.519774  34.338245
    498    2  0.0  16.439874  21.388014  34.550865
    499    1  0.0  16.474874  16.792695  34.570754
    500    2  0.0  16.457874  18.943573  34.645286
    501    1  0.0  16.432874  21.453213  35.636917
    502    1  0.0  16.451874  18.959775  35.733554
    503    1  0.0  22.113874  23.608815  37.651084
    504    4  0.0  22.281863  22.763894  38.105144
    505    1  0.0  23.292874  21.003335  38.135124
    506    4  0.0  23.722875  20.736575  38.977634
    507    1  0.0  23.808873  23.655934  39.272594
    508    2  0.0  22.897864  23.023215  39.363254
    509    1  0.0  21.244874  20.655295  39.671577
    510    1  0.0  21.204873  24.310694  39.887306
    511    2  0.0  23.195874  21.618575  39.929256
    512    1  0.0  25.813865  26.270335  40.195514
    513    4  0.0  21.602874  18.490094  40.320026
    514    2  0.0  21.889874  23.581213  40.370124
    515    2  0.0  21.767875  21.239335  40.466483
    516    1  0.0  23.920875  21.694294  40.774696
    517    4  0.0  21.088874  22.454415  40.776634
    518    1  0.0  27.671874  22.027613  40.929904
    519    4  0.0  25.497865  26.632485  41.045394
    520    4  0.0  23.398873  25.299094  41.135494
    521    2  0.0  21.567874  18.972735  41.438995
    522    4  0.0  25.520873  24.102213  41.558463
    523    4  0.0  26.941875  22.062254  41.580634
    524    2  0.0  22.533874  24.230053  41.603744
    525    3  0.0  21.740874  20.372294  41.666355
    526    5  0.0  24.770873  25.537533  41.948295
    527    4  0.0  28.079873  24.381255  42.154716
    528    1  0.0  23.115874  23.489693  42.192115
    529    1  0.0  21.760875  24.659733  42.273635
    530    5  0.0  26.895873  23.528574  42.288375
    531    1  0.0  21.060874  17.268134  42.492904
    532    3  0.0  21.354875  18.257735  42.607776
    533    1  0.0  21.434875  22.013335  42.872154
    534    2  0.0  21.457873  20.919974  42.879917
    535    1  0.0  24.868875  21.921525  43.058505
    536    4  0.0  24.696874  25.874573  43.374206
    537    1  0.0  26.894874  20.700083  43.422794
    538    4  0.0  26.446874  23.143374  43.767135
    539    2  0.0  21.167874  18.745814  43.919807
    540    2  0.0  21.128875  20.210574  44.013954
    541    2  0.0  25.251874  22.309254  44.029136
    542    1  0.0  20.470874  22.809174  44.119735
    543    4  0.0  26.761874  20.394845  44.341285
    544    1  0.0  18.058873  22.002694  44.419525
    545    4  0.0  24.248874  23.078173  44.586704
    546    1  0.0  18.442874  23.673005  44.809196
    547    4  0.0  20.996875  17.957215  44.850646
    548    2  0.0  25.717874  21.146094  44.916084
    549    1  0.0  24.807874  20.505173  45.052074
    550    2  0.0  20.100875  22.361535  45.059387
    551    2  0.0  18.585874  22.637614  45.142616
    552    2  0.0  20.428874  20.873894  45.164615
    553    1  0.0  23.272874  25.296013  45.508624
    554    1  0.0  25.537873  24.361853  45.622005
    555    1  0.0  16.470874  19.878134  45.665607
    556    2  0.0  24.667865  23.699854  45.834175
    557    1  0.0  20.653874  22.882294  45.868366
    558    4  0.0  20.032874  20.218693  46.122554
    559    1  0.0  27.069875  22.280493  46.136794
    560    2  0.0  26.137874  21.688574  46.295276
    561    2  0.0  23.530873  24.585413  46.324973
    562    2  0.0  17.952874  22.457573  46.534435
    563    2  0.0  16.459874  22.428534  46.650867
    564    4  0.0  22.399875  23.808335  46.709384
    565    1  0.0  16.439874  24.589814  46.741405
    566    2  0.0  16.478874  19.984053  46.745284
    567    2  0.0  25.044873  22.612734  46.854453
    568    1  0.0  18.143874  21.457573  46.936466
    569    1  0.0  16.489874  17.852053  46.958854
    570    1  0.0  24.116874  22.018174  47.040145
    571    1  0.0  23.938865  25.154965  47.186324
    572    4  0.0  26.499873  20.667565  47.203224
    573    1  0.0  18.495873  23.109694  47.233985
    574    2  0.0  16.446874  23.659094  47.303966
    575    2  0.0  16.464874  21.231814  47.383094
    576    1  0.0  25.691875  20.155974  47.403434
    577    2  0.0  16.482874  18.802174  47.488445
    578    1  0.0  22.147874  24.072773  47.608074
    579    4  0.0  25.410874  23.215254  48.083755
    580    1  0.0  26.383874  23.180125  48.146095
    581    2  0.0  16.438874  23.714774  48.696784
    582    2  0.0  16.456874  21.285615  48.796096
    583    2  0.0  16.474874  18.835333  48.889076
    584    1  0.0  16.489874  16.683974  49.163764