# LAMMPS data file created from VNL: Compatible with atom_style atomic.
   8486  atoms
      5  atom types
 0.000000  42.948970   xlo xhi
 0.000000  41.481979   ylo yhi
 0.000000  58.104949   zlo zhi

Masses

1   1.007940
2   12.010700
3   14.006700
4   15.999400
5   30.973800

Atoms

      1    2  0.0  13.395794  15.205974  0.782053
      2    2  0.0  13.395794  17.666974  0.782053
      3    2  0.0  13.395794  20.127974  0.782053
      4    2  0.0  13.395794  22.588974  0.782053
      5    2  0.0  13.395794  25.049975  0.782053
      6    1  0.0  13.395794  27.224453  0.947483
      7    1  0.0  13.395794  14.262014  1.327053
      8    2  0.0  13.395794  16.436493  1.492483
      9    2  0.0  13.395794  18.897494  1.492483
     10    2  0.0  13.395794  21.358494  1.492483
     11    2  0.0  13.395794  23.819495  1.492483
     12    2  0.0  13.395794  26.280493  1.492483
     13    2  0.0  13.395794  23.819495  2.913343
     14    2  0.0  13.395794  26.280493  2.913343
     15    2  0.0  13.395794  16.436493  2.913383
     16    2  0.0  13.395794  18.897494  2.913383
     17    2  0.0  13.395794  21.358494  2.913383
     18    1  0.0  13.395794  14.262014  3.078813
     19    1  0.0  13.395794  27.224453  3.458343
     20    2  0.0  13.395794  25.049975  3.623773
     21    2  0.0  13.395794  15.205974  3.623813
     22    2  0.0  13.395794  17.666974  3.623813
     23    2  0.0  13.395794  20.127974  3.623813
     24    2  0.0  13.395794  22.588974  3.623813
     25    2  0.0  13.395794  25.049975  5.044633
     26    2  0.0  13.395794  15.205974  5.044673
     27    2  0.0  13.395794  17.666974  5.044673
     28    2  0.0  13.395794  20.127974  5.044673
     29    2  0.0  13.395794  22.588974  5.044673
     30    1  0.0  13.395794  27.224453  5.210063
     31    1  0.0  13.395794  14.262014  5.589673
     32    2  0.0  13.395794  23.819495  5.755063
     33    2  0.0  13.395794  26.280493  5.755063
     34    2  0.0  13.395794  16.436493  5.755123
     35    2  0.0  13.395794  18.897494  5.755123
     36    2  0.0  13.395794  21.358494  5.755123
     37    2  0.0  13.395794  23.819495  7.175923
     38    2  0.0  13.395794  26.280493  7.175923
     39    2  0.0  13.395794  16.436493  7.175983
     40    2  0.0  13.395794  18.897494  7.175983
     41    2  0.0  13.395794  21.358494  7.175983
     42    1  0.0  13.395794  14.262014  7.341393
     43    1  0.0  13.395794  27.224453  7.720913
     44    2  0.0  13.395794  25.049975  7.886323
     45    2  0.0  13.395794  15.205974  7.886383
     46    2  0.0  13.395794  17.666974  7.886383
     47    2  0.0  13.395794  20.127974  7.886383
     48    2  0.0  13.395794  22.588974  7.886383
     49    2  0.0  13.395794  25.049975  9.307183
     50    2  0.0  13.395794  15.205974  9.307243
     51    2  0.0  13.395794  17.666974  9.307243
     52    2  0.0  13.395794  20.127974  9.307243
     53    2  0.0  13.395794  22.588974  9.307243
     54    1  0.0  13.395794  27.224453  9.472653
     55    1  0.0  13.395794  14.262014  9.852233
     56    2  0.0  13.395794  23.819495  10.017644
     57    2  0.0  13.395794  26.280493  10.017644
     58    2  0.0  13.395794  16.436493  10.017703
     59    2  0.0  13.395794  18.897494  10.017703
     60    2  0.0  13.395794  21.358494  10.017703
     61    2  0.0  13.395794  23.819495  11.438503
     62    2  0.0  13.395794  26.280493  11.438503
     63    2  0.0  13.395794  16.436493  11.438563
     64    2  0.0  13.395794  18.897494  11.438563
     65    2  0.0  13.395794  21.358494  11.438563
     66    1  0.0  13.395794  14.262014  11.603973
     67    1  0.0  13.395794  27.224453  11.983493
     68    2  0.0  13.395794  25.049975  12.148903
     69    2  0.0  13.395794  15.205974  12.148963
     70    2  0.0  13.395794  17.666974  12.148963
     71    2  0.0  13.395794  20.127974  12.148963
     72    2  0.0  13.395794  22.588974  12.148963
     73    2  0.0  13.395794  25.049975  13.569763
     74    2  0.0  13.395794  15.205974  13.569824
     75    2  0.0  13.395794  17.666974  13.569824
     76    2  0.0  13.395794  20.127974  13.569824
     77    2  0.0  13.395794  22.588974  13.569824
     78    1  0.0  13.395794  27.224453  13.735233
     79    1  0.0  13.395794  14.262014  14.114813
     80    2  0.0  13.395794  23.819495  14.280224
     81    2  0.0  13.395794  26.280493  14.280224
     82    2  0.0  13.395794  16.436493  14.280283
     83    2  0.0  13.395794  18.897494  14.280283
     84    2  0.0  13.395794  21.358494  14.280283
     85    2  0.0  13.395794  23.819495  15.701083
     86    2  0.0  13.395794  26.280493  15.701083
     87    2  0.0  13.395794  16.436493  15.701143
     88    2  0.0  13.395794  18.897494  15.701143
     89    2  0.0  13.395794  21.358494  15.701143
     90    1  0.0  13.395794  14.262014  15.866553
     91    1  0.0  13.395794  27.224453  16.246073
     92    2  0.0  13.395794  25.049975  16.411484
     93    2  0.0  13.395794  15.205974  16.411543
     94    2  0.0  13.395794  17.666974  16.411543
     95    2  0.0  13.395794  20.127974  16.411543
     96    2  0.0  13.395794  22.588974  16.411543
     97    2  0.0  13.395794  25.049975  17.832342
     98    2  0.0  13.395794  15.205974  17.832404
     99    2  0.0  13.395794  17.666974  17.832404
    100    2  0.0  13.395794  20.127974  17.832404
    101    2  0.0  13.395794  22.588974  17.832404
    102    1  0.0  13.395794  27.224453  17.997812
    103    1  0.0  13.395794  14.262014  18.377394
    104    2  0.0  13.395794  23.819495  18.542804
    105    2  0.0  13.395794  26.280493  18.542804
    106    2  0.0  13.395794  16.436493  18.542862
    107    2  0.0  13.395794  18.897494  18.542862
    108    2  0.0  13.395794  21.358494  18.542862
    109    2  0.0  13.395794  16.436493  19.963722
    110    2  0.0  13.395794  18.897494  19.963722
    111    2  0.0  13.395794  21.358494  19.963722
    112    2  0.0  13.395794  23.819495  19.963722
    113    2  0.0  13.395794  26.280493  19.963722
    114    1  0.0  13.395794  14.262014  20.129133
    115    1  0.0  13.395794  27.224453  20.508713
    116    2  0.0  13.395794  15.205974  20.674124
    117    2  0.0  13.395794  17.666974  20.674124
    118    2  0.0  13.395794  20.127974  20.674124
    119    2  0.0  13.395794  22.588974  20.674124
    120    2  0.0  13.395794  25.049975  20.674183
    121    2  0.0  13.395794  15.205974  22.094982
    122    2  0.0  13.395794  17.666974  22.094982
    123    2  0.0  13.395794  20.127974  22.094982
    124    2  0.0  13.395794  22.588974  22.094982
    125    2  0.0  13.395794  25.049975  22.095043
    126    1  0.0  13.395794  27.224453  22.260452
    127    1  0.0  13.395794  14.262014  22.639973
    128    2  0.0  13.395794  16.436493  22.805443
    129    2  0.0  13.395794  18.897494  22.805443
    130    2  0.0  13.395794  21.358494  22.805443
    131    2  0.0  13.395794  23.819495  22.805443
    132    2  0.0  13.395794  26.280493  22.805443
    133    2  0.0  13.395794  16.436493  24.226303
    134    2  0.0  13.395794  18.897494  24.226303
    135    2  0.0  13.395794  21.358494  24.226303
    136    2  0.0  13.395794  23.819495  24.226303
    137    2  0.0  13.395794  26.280493  24.226303
    138    1  0.0  13.395794  14.262014  24.391712
    139    1  0.0  13.395794  27.224453  24.771294
    140    2  0.0  13.395794  15.205974  24.936703
    141    2  0.0  13.395794  17.666974  24.936703
    142    2  0.0  13.395794  20.127974  24.936703
    143    2  0.0  13.395794  22.588974  24.936703
    144    2  0.0  13.395794  25.049975  24.936764
    145    2  0.0  13.395794  15.205974  26.357563
    146    2  0.0  13.395794  17.666974  26.357563
    147    2  0.0  13.395794  20.127974  26.357563
    148    2  0.0  13.395794  22.588974  26.357563
    149    2  0.0  13.395794  25.049975  26.357622
    150    1  0.0  13.395794  27.224453  26.523024
    151    1  0.0  13.395794  14.262014  26.902554
    152    2  0.0  13.395794  16.436493  27.068024
    153    2  0.0  13.395794  18.897494  27.068024
    154    2  0.0  13.395794  21.358494  27.068024
    155    2  0.0  13.395794  23.819495  27.068024
    156    2  0.0  13.395794  26.280493  27.068024
    157    2  0.0  13.395794  16.436493  28.488823
    158    2  0.0  13.395794  18.897494  28.488823
    159    2  0.0  13.395794  21.358494  28.488823
    160    2  0.0  13.395794  23.819495  28.488882
    161    2  0.0  13.395794  26.280493  28.488882
    162    1  0.0  13.395794  14.262014  28.654293
    163    1  0.0  13.395794  27.224453  29.033873
    164    2  0.0  13.395794  15.205974  29.199284
    165    2  0.0  13.395794  17.666974  29.199284
    166    2  0.0  13.395794  20.127974  29.199284
    167    2  0.0  13.395794  22.588974  29.199284
    168    2  0.0  13.395794  25.049975  29.199333
    169    2  0.0  13.395794  15.205974  30.620142
    170    2  0.0  13.395794  17.666974  30.620142
    171    2  0.0  13.395794  20.127974  30.620142
    172    2  0.0  13.395794  22.588974  30.620142
    173    2  0.0  13.395794  25.049975  30.620203
    174    1  0.0  13.395794  27.224453  30.785612
    175    1  0.0  13.395794  14.262014  31.165133
    176    2  0.0  13.395794  16.436493  31.330544
    177    2  0.0  13.395794  18.897494  31.330544
    178    2  0.0  13.395794  21.358494  31.330544
    179    2  0.0  13.395794  23.819495  31.330603
    180    2  0.0  13.395794  26.280493  31.330603
    181    2  0.0  13.395794  16.436493  32.751463
    182    2  0.0  13.395794  18.897494  32.751463
    183    2  0.0  13.395794  21.358494  32.751463
    184    2  0.0  13.395794  23.819495  32.751463
    185    2  0.0  13.395794  26.280493  32.751463
    186    1  0.0  13.395794  14.262014  32.916922
    187    1  0.0  13.395794  27.224453  33.296454
    188    2  0.0  13.395794  15.205974  33.461924
    189    2  0.0  13.395794  17.666974  33.461924
    190    2  0.0  13.395794  20.127974  33.461924
    191    2  0.0  13.395794  22.588974  33.461924
    192    2  0.0  13.395794  25.049975  33.461924
    193    2  0.0  13.395794  25.049975  34.882784
    194    2  0.0  13.395794  15.205974  34.882784
    195    2  0.0  13.395794  17.666974  34.882784
    196    2  0.0  13.395794  20.127974  34.882784
    197    2  0.0  13.395794  22.588974  34.882784
    198    1  0.0  13.395794  27.224453  35.048193
    199    1  0.0  13.395794  14.262014  35.427775
    200    2  0.0  13.395794  16.436493  35.593184
    201    2  0.0  13.395794  18.897494  35.593184
    202    2  0.0  13.395794  21.358494  35.593184
    203    2  0.0  13.395794  23.819495  35.593184
    204    2  0.0  13.395794  26.280493  35.593184
    205    2  0.0  13.395794  16.436493  37.014044
    206    2  0.0  13.395794  18.897494  37.014044
    207    2  0.0  13.395794  21.358494  37.014044
    208    2  0.0  13.395794  23.819495  37.014044
    209    2  0.0  13.395794  26.280493  37.014044
    210    1  0.0  13.395794  14.262014  37.179503
    211    1  0.0  13.395794  27.224453  37.559034
    212    2  0.0  13.395794  15.205974  37.724505
    213    2  0.0  13.395794  17.666974  37.724505
    214    2  0.0  13.395794  20.127974  37.724505
    215    2  0.0  13.395794  22.588974  37.724505
    216    2  0.0  13.395794  25.049975  37.724505
    217    2  0.0  13.395794  15.205974  39.145361
    218    2  0.0  13.395794  17.666974  39.145361
    219    2  0.0  13.395794  20.127974  39.145361
    220    2  0.0  13.395794  22.588974  39.145361
    221    2  0.0  13.395794  25.049975  39.145361
    222    1  0.0  13.395794  27.224453  39.310774
    223    1  0.0  13.395794  14.262014  39.690352
    224    2  0.0  13.395794  16.436493  39.855765
    225    2  0.0  13.395794  18.897494  39.855765
    226    2  0.0  13.395794  21.358494  39.855765
    227    2  0.0  13.395794  23.819495  39.855765
    228    2  0.0  13.395794  26.280493  39.855765
    229    2  0.0  13.395794  23.819495  41.276625
    230    2  0.0  13.395794  26.280493  41.276625
    231    2  0.0  13.395794  16.436493  41.276625
    232    2  0.0  13.395794  18.897494  41.276625
    233    2  0.0  13.395794  21.358494  41.276625
    234    1  0.0  13.395794  14.262014  41.442034
    235    1  0.0  13.395794  27.224453  41.821612
    236    2  0.0  13.395794  15.205974  41.987082
    237    2  0.0  13.395794  17.666974  41.987082
    238    2  0.0  13.395794  20.127974  41.987082
    239    2  0.0  13.395794  22.588974  41.987082
    240    2  0.0  13.395794  25.049975  41.987082
    241    2  0.0  13.395794  15.205974  43.407942
    242    2  0.0  13.395794  17.666974  43.407942
    243    2  0.0  13.395794  20.127974  43.407942
    244    2  0.0  13.395794  22.588974  43.407942
    245    2  0.0  13.395794  25.049975  43.407942
    246    1  0.0  13.395794  27.224453  43.573343
    247    1  0.0  13.395794  14.262014  43.952934
    248    2  0.0  13.395794  16.436493  44.118342
    249    2  0.0  13.395794  18.897494  44.118342
    250    2  0.0  13.395794  21.358494  44.118342
    251    2  0.0  13.395794  23.819495  44.118342
    252    2  0.0  13.395794  26.280493  44.118342
    253    2  0.0  13.395794  16.436493  45.539202
    254    2  0.0  13.395794  18.897494  45.539202
    255    2  0.0  13.395794  21.358494  45.539202
    256    2  0.0  13.395794  23.819495  45.539202
    257    2  0.0  13.395794  26.280493  45.539202
    258    1  0.0  13.395794  14.262014  45.704615
    259    1  0.0  13.395794  27.224453  46.084192
    260    2  0.0  13.395794  15.205974  46.249663
    261    2  0.0  13.395794  17.666974  46.249663
    262    2  0.0  13.395794  20.127974  46.249663
    263    2  0.0  13.395794  22.588974  46.249663
    264    2  0.0  13.395794  25.049975  46.249663
    265    2  0.0  13.395794  15.205974  47.670523
    266    2  0.0  13.395794  17.666974  47.670523
    267    2  0.0  13.395794  20.127974  47.670523
    268    2  0.0  13.395794  22.588974  47.670523
    269    2  0.0  13.395794  25.049975  47.670523
    270    1  0.0  13.395794  27.224453  47.835932
    271    1  0.0  13.395794  14.262014  48.215513
    272    2  0.0  13.395794  23.819495  48.380922
    273    2  0.0  13.395794  26.280493  48.380922
    274    2  0.0  13.395794  16.436493  48.380922
    275    2  0.0  13.395794  18.897494  48.380922
    276    2  0.0  13.395794  21.358494  48.380922
    277    2  0.0  13.395794  16.436493  49.801783
    278    2  0.0  13.395794  18.897494  49.801783
    279    2  0.0  13.395794  21.358494  49.801783
    280    2  0.0  13.395794  23.819495  49.801783
    281    2  0.0  13.395794  26.280493  49.801783
    282    1  0.0  13.395794  14.262014  49.967192
    283    1  0.0  13.395794  27.224453  50.346773
    284    2  0.0  13.395794  15.205974  50.512243
    285    2  0.0  13.395794  17.666974  50.512243
    286    2  0.0  13.395794  20.127974  50.512243
    287    2  0.0  13.395794  22.588974  50.512243
    288    2  0.0  13.395794  25.049975  50.512243
    289    2  0.0  13.395794  15.205974  51.933104
    290    2  0.0  13.395794  17.666974  51.933104
    291    2  0.0  13.395794  20.127974  51.933104
    292    2  0.0  13.395794  22.588974  51.933104
    293    2  0.0  13.395794  25.049975  51.933104
    294    1  0.0  13.395794  27.224453  52.098513
    295    1  0.0  13.395794  14.262014  52.478094
    296    2  0.0  13.395794  16.436493  52.643503
    297    2  0.0  13.395794  18.897494  52.643503
    298    2  0.0  13.395794  21.358494  52.643503
    299    2  0.0  13.395794  23.819495  52.643503
    300    2  0.0  13.395794  26.280493  52.643503
    301    2  0.0  13.395794  16.436493  54.064364
    302    2  0.0  13.395794  18.897494  54.064364
    303    2  0.0  13.395794  21.358494  54.064364
    304    2  0.0  13.395794  23.819495  54.064364
    305    2  0.0  13.395794  26.280493  54.064364
    306    1  0.0  13.395794  14.262014  54.229773
    307    1  0.0  13.395794  27.224453  54.609354
    308    2  0.0  13.395794  15.205974  54.774824
    309    2  0.0  13.395794  17.666974  54.774824
    310    2  0.0  13.395794  20.127974  54.774824
    311    2  0.0  13.395794  22.588974  54.774824
    312    2  0.0  13.395794  25.049975  54.774824
    313    1  0.0  22.113874  23.608815  1.663593
    314    4  0.0  22.281875  22.763894  2.117673
    315    1  0.0  23.292874  21.003335  2.147643
    316    4  0.0  23.722875  20.736575  2.990143
    317    1  0.0  23.808873  23.655934  3.285153
    318    2  0.0  22.897874  23.023215  3.375783
    319    1  0.0  21.244874  20.655295  3.684083
    320    1  0.0  21.204873  24.310694  3.899813
    321    2  0.0  23.195874  21.618575  3.941773
    322    1  0.0  25.813874  26.270335  4.208053
    323    4  0.0  21.602874  18.490094  4.332543
    324    2  0.0  21.889874  23.581213  4.382683
    325    2  0.0  21.767875  21.239335  4.478983
    326    1  0.0  23.920875  21.694294  4.787203
    327    4  0.0  21.088874  22.454415  4.789153
    328    1  0.0  27.671874  22.027613  4.942463
    329    4  0.0  25.497874  26.632494  5.057903
    330    4  0.0  23.398873  25.299094  5.148003
    331    2  0.0  21.567874  18.972735  5.451533
    332    4  0.0  25.520873  24.102213  5.571013
    333    4  0.0  26.941875  22.062254  5.593163
    334    2  0.0  22.533874  24.230053  5.616303
    335    3  0.0  21.740874  20.372294  5.678873
    336    5  0.0  24.770873  25.537533  5.960813
    337    4  0.0  28.079873  24.381255  6.167233
    338    1  0.0  23.115874  23.489693  6.204633
    339    1  0.0  21.760875  24.659733  6.286143
    340    5  0.0  26.895873  23.528574  6.300943
    341    1  0.0  21.060874  17.268134  6.505473
    342    3  0.0  21.354875  18.257735  6.620293
    343    1  0.0  21.434875  22.013335  6.884673
    344    2  0.0  21.457873  20.919974  6.892423
    345    1  0.0  24.868875  21.921534  7.071023
    346    4  0.0  24.696874  25.874573  7.386713
    347    1  0.0  26.894874  20.700095  7.435373
    348    4  0.0  26.446874  23.143374  7.779653
    349    2  0.0  21.167874  18.745814  7.932323
    350    2  0.0  21.128875  20.210574  8.026463
    351    2  0.0  25.251874  22.309254  8.041653
    352    1  0.0  20.470874  22.809174  8.132303
    353    4  0.0  26.761874  20.394854  8.353793
    354    1  0.0  18.058873  22.002694  8.432093
    355    4  0.0  24.248874  23.078173  8.599223
    356    1  0.0  18.442874  23.673014  8.821763
    357    4  0.0  20.996875  17.957215  8.863213
    358    2  0.0  25.717874  21.146094  8.928603
    359    1  0.0  24.807874  20.505173  9.064583
    360    2  0.0  20.100875  22.361535  9.071903
    361    2  0.0  18.585874  22.637614  9.155183
    362    2  0.0  20.428874  20.873894  9.177133
    363    1  0.0  23.272874  25.296013  9.521143
    364    1  0.0  25.537873  24.361853  9.634513
    365    1  0.0  16.470874  19.878134  9.678123
    366    2  0.0  24.667874  23.699854  9.846693
    367    1  0.0  20.653874  22.882294  9.880943
    368    4  0.0  20.032874  20.218693  10.135063
    369    1  0.0  27.069875  22.280493  10.149303
    370    2  0.0  26.137874  21.688574  10.307793
    371    2  0.0  23.530873  24.585413  10.337493
    372    2  0.0  17.952874  22.457573  10.546953
    373    2  0.0  16.459874  22.428534  10.663383
    374    4  0.0  22.399875  23.808335  10.721953
    375    1  0.0  16.439874  24.589814  10.753923
    376    2  0.0  16.478874  19.984053  10.757803
    377    2  0.0  25.044873  22.612734  10.866973
    378    1  0.0  18.143874  21.457573  10.948983
    379    1  0.0  16.489874  17.852053  10.971363
    380    1  0.0  24.116874  22.018174  11.052663
    381    1  0.0  23.938874  25.154974  11.198893
    382    4  0.0  26.499873  20.667574  11.215793
    383    1  0.0  18.495873  23.109694  11.246493
    384    2  0.0  16.446874  23.659094  11.316483
    385    2  0.0  16.464874  21.231814  11.395613
    386    1  0.0  25.691875  20.155974  11.415953
    387    2  0.0  16.482874  18.802174  11.500953
    388    1  0.0  22.147874  24.072773  11.620593
    389    4  0.0  25.410874  23.215254  12.096263
    390    1  0.0  26.383874  23.180134  12.158603
    391    2  0.0  16.438874  23.714774  12.709303
    392    2  0.0  16.456874  21.285615  12.808603
    393    2  0.0  16.474874  18.835333  12.901593
    394    1  0.0  16.489874  16.683974  13.176273
    395    1  0.0  16.427874  24.687893  13.196223
    396    2  0.0  16.443874  22.535815  13.469693
    397    2  0.0  16.461874  20.086495  13.562893
    398    2  0.0  16.479874  17.657094  13.663193
    399    2  0.0  16.434874  22.569933  14.870543
    400    2  0.0  16.452874  20.139054  14.976603
    401    2  0.0  16.470874  17.711813  15.055793
    402    1  0.0  16.424874  23.519774  15.401133
    403    2  0.0  16.439874  21.388014  15.613703
    404    1  0.0  16.474874  16.792695  15.633593
    405    2  0.0  16.457874  18.943573  15.708123
    406    1  0.0  16.432874  21.453213  16.699753
    407    1  0.0  16.451874  18.959775  16.796393
    408    1  0.0  22.113874  23.608815  14.451343
    409    4  0.0  22.281875  22.763894  14.905403
    410    1  0.0  23.292874  21.003335  14.935383
    411    4  0.0  23.722875  20.736575  15.777893
    412    1  0.0  23.808873  23.655934  16.072912
    413    2  0.0  22.897874  23.023215  16.163513
    414    1  0.0  21.244874  20.655295  16.471832
    415    1  0.0  21.204873  24.310694  16.687554
    416    2  0.0  23.195874  21.618575  16.729505
    417    1  0.0  25.813874  26.270335  16.995764
    418    4  0.0  21.602874  18.490094  17.120283
    419    2  0.0  21.889874  23.581213  17.170433
    420    2  0.0  21.767875  21.239335  17.266743
    421    1  0.0  23.920875  21.694294  17.574953
    422    4  0.0  21.088874  22.454415  17.576893
    423    1  0.0  27.671874  22.027613  17.730223
    424    4  0.0  25.497874  26.632494  17.845642
    425    4  0.0  23.398873  25.299094  17.935753
    426    2  0.0  21.567874  18.972735  18.239252
    427    4  0.0  25.520873  24.102213  18.358772
    428    4  0.0  26.941875  22.062254  18.380882
    429    2  0.0  22.533874  24.230053  18.404053
    430    3  0.0  21.740874  20.372294  18.466614
    431    5  0.0  24.770873  25.537533  18.748552
    432    4  0.0  28.079873  24.381255  18.954973
    433    1  0.0  23.115874  23.489693  18.992373
    434    1  0.0  21.760875  24.659733  19.073894
    435    5  0.0  26.895873  23.528574  19.088682
    436    1  0.0  21.060874  17.268134  19.293213
    437    3  0.0  21.354875  18.257735  19.408034
    438    1  0.0  21.434875  22.013335  19.672413
    439    2  0.0  21.457873  20.919974  19.680172
    440    1  0.0  24.868875  21.921534  19.858763
    441    4  0.0  24.696874  25.874573  20.174463
    442    1  0.0  26.894874  20.700095  20.223112
    443    4  0.0  26.446874  23.143374  20.567393
    444    2  0.0  21.167874  18.745814  20.720062
    445    2  0.0  21.128875  20.210574  20.814213
    446    2  0.0  25.251874  22.309254  20.829394
    447    1  0.0  20.470874  22.809174  20.919993
    448    4  0.0  26.761874  20.394854  21.141533
    449    1  0.0  18.058873  22.002694  21.219834
    450    4  0.0  24.248874  23.078173  21.386963
    451    1  0.0  18.442874  23.673014  21.609504
    452    4  0.0  20.996875  17.957215  21.650953
    453    2  0.0  25.717874  21.146094  21.716343
    454    1  0.0  24.807874  20.505173  21.852324
    455    2  0.0  20.100875  22.361535  21.859642
    456    2  0.0  18.585874  22.637614  21.942873
    457    2  0.0  20.428874  20.873894  21.964873
    458    1  0.0  23.272874  25.296013  22.308884
    459    1  0.0  25.537873  24.361853  22.422253
    460    1  0.0  16.470874  19.878134  22.465862
    461    2  0.0  24.667865  23.699854  22.634434
    462    1  0.0  20.653874  22.882294  22.668623
    463    4  0.0  20.032874  20.218693  22.922802
    464    1  0.0  27.069875  22.280493  22.937054
    465    2  0.0  26.137874  21.688574  23.095534
    466    2  0.0  23.530873  24.585413  23.125233
    467    2  0.0  17.952874  22.457573  23.334692
    468    2  0.0  16.459874  22.428534  23.451122
    469    4  0.0  22.399875  23.808335  23.509632
    470    1  0.0  16.439874  24.589814  23.541662
    471    2  0.0  16.478874  19.984053  23.545544
    472    2  0.0  25.044873  22.612734  23.654713
    473    1  0.0  18.143874  21.457573  23.736723
    474    1  0.0  16.489874  17.852053  23.759104
    475    1  0.0  24.116874  22.018174  23.840403
    476    1  0.0  23.938865  25.154974  23.986584
    477    4  0.0  26.499873  20.667574  24.003542
    478    1  0.0  18.495873  23.109694  24.034233
    479    2  0.0  16.446874  23.659094  24.104223
    480    2  0.0  16.464874  21.231814  24.183354
    481    1  0.0  25.691875  20.155974  24.203694
    482    2  0.0  16.482874  18.802174  24.288693
    483    1  0.0  22.147874  24.072773  24.408333
    484    4  0.0  25.410874  23.215254  24.884003
    485    1  0.0  26.383874  23.180134  24.946343
    486    2  0.0  16.438874  23.714774  25.497044
    487    2  0.0  16.456874  21.285615  25.596342
    488    2  0.0  16.474874  18.835333  25.689333
    489    1  0.0  16.489874  16.683974  25.964012
    490    1  0.0  16.427874  24.687893  25.983963
    491    2  0.0  16.443874  22.535815  26.257433
    492    2  0.0  16.461874  20.086495  26.350634
    493    2  0.0  16.479874  17.657094  26.450882
    494    2  0.0  16.434874  22.569933  27.658283
    495    2  0.0  16.452874  20.139054  27.764343
    496    2  0.0  16.470874  17.711813  27.843533
    497    1  0.0  16.424874  23.519774  28.188812
    498    2  0.0  16.439874  21.388014  28.401432
    499    1  0.0  16.474874  16.792695  28.421333
    500    2  0.0  16.457874  18.943573  28.495863
    501    1  0.0  16.432874  21.453213  29.487495
    502    1  0.0  16.451874  18.959775  29.584133
    503    1  0.0  22.113874  23.608815  27.239082
    504    4  0.0  22.281863  22.763894  27.693142
    505    1  0.0  23.292874  21.003335  27.723124
    506    4  0.0  23.722875  20.736575  28.565634
    507    1  0.0  23.808873  23.655934  28.860653
    508    2  0.0  22.897864  23.023215  28.951252
    509    1  0.0  21.244874  20.655295  29.259573
    510    1  0.0  21.204873  24.310694  29.475304
    511    2  0.0  23.195874  21.618575  29.517243
    512    1  0.0  25.813865  26.270335  29.783512
    513    4  0.0  21.602874  18.490094  29.908022
    514    2  0.0  21.889874  23.581213  29.958174
    515    2  0.0  21.767875  21.239335  30.054484
    516    1  0.0  23.920875  21.694294  30.362694
    517    4  0.0  21.088874  22.454415  30.364634
    518    1  0.0  27.671874  22.027613  30.517903
    519    4  0.0  25.497865  26.632494  30.633392
    520    4  0.0  23.398873  25.299094  30.723494
    521    2  0.0  21.567874  18.972735  31.026993
    522    4  0.0  25.520873  24.102213  31.146464
    523    4  0.0  26.941875  22.062254  31.168623
    524    2  0.0  22.533874  24.230053  31.191733
    525    3  0.0  21.740874  20.372294  31.254353
    526    5  0.0  24.770873  25.537533  31.536293
    527    4  0.0  28.079873  24.381255  31.742712
    528    1  0.0  23.115874  23.489693  31.780113
    529    1  0.0  21.760875  24.659733  31.861633
    530    5  0.0  26.895873  23.528574  31.876373
    531    1  0.0  21.060874  17.268134  32.080954
    532    3  0.0  21.354875  18.257735  32.195772
    533    1  0.0  21.434875  22.013335  32.460154
    534    2  0.0  21.457873  20.919974  32.467913
    535    1  0.0  24.868875  21.921534  32.646502
    536    4  0.0  24.696874  25.874573  32.962202
    537    1  0.0  26.894874  20.700095  33.010855
    538    4  0.0  26.446874  23.143374  33.355131
    539    2  0.0  21.167874  18.745814  33.507803
    540    2  0.0  21.128875  20.210574  33.601954
    541    2  0.0  25.251874  22.309254  33.617132
    542    1  0.0  20.470874  22.809174  33.707731
    543    4  0.0  26.761874  20.394854  33.929274
    544    1  0.0  18.058873  22.002694  34.007574
    545    4  0.0  24.248874  23.078173  34.174704
    546    1  0.0  18.442874  23.673014  34.397242
    547    4  0.0  20.996875  17.957215  34.438692
    548    2  0.0  25.717874  21.146094  34.504084
    549    1  0.0  24.807874  20.505173  34.640075
    550    2  0.0  20.100875  22.361535  34.647383
    551    2  0.0  18.585874  22.637614  34.730612
    552    2  0.0  20.428874  20.873894  34.752611
    553    1  0.0  23.272874  25.296013  35.096625
    554    1  0.0  25.537873  24.361853  35.209994
    555    1  0.0  16.470874  19.878134  35.253603
    556    2  0.0  24.667865  23.699854  35.422175
    557    1  0.0  20.653874  22.882294  35.456362
    558    4  0.0  20.032874  20.218693  35.710554
    559    1  0.0  27.069875  22.280493  35.724795
    560    2  0.0  26.137874  21.688574  35.883272
    561    2  0.0  23.530873  24.585413  35.912974
    562    2  0.0  17.952874  22.457573  36.122442
    563    2  0.0  16.459874  22.428534  36.238863
    564    4  0.0  22.399875  23.808335  36.297384
    565    1  0.0  16.439874  24.589814  36.329413
    566    2  0.0  16.478874  19.984053  36.333285
    567    2  0.0  25.044873  22.612734  36.442454
    568    1  0.0  18.143874  21.457573  36.524462
    569    1  0.0  16.489874  17.852053  36.546854
    570    1  0.0  24.116874  22.018174  36.628142
    571    1  0.0  23.938865  25.154974  36.774325
    572    4  0.0  26.499873  20.667574  36.791224
    573    1  0.0  18.495873  23.109694  36.821974
    574    2  0.0  16.446874  23.659094  36.891962
    575    2  0.0  16.464874  21.231814  36.971102
    576    1  0.0  25.691875  20.155974  36.991434
    577    2  0.0  16.482874  18.802174  37.076433
    578    1  0.0  22.147874  24.072773  37.196074
    579    4  0.0  25.410874  23.215254  37.671744
    580    1  0.0  26.383874  23.180134  37.734083
    581    2  0.0  16.438874  23.714774  38.284784
    582    2  0.0  16.456874  21.285615  38.384092
    583    2  0.0  16.474874  18.835333  38.477072
    584    1  0.0  16.489874  16.683974  38.751753